2
30000
    1PEO   H001    1   0.425   1.678   3.782  0.2515  0.3204  0.3878
    1PEO   H002    2   0.259   1.733   3.750  0.8074  0.0716 -1.1984
    1PEO   H003    3   0.382   1.839   3.818  0.0602 -0.1184 -1.7301
    1PEO   C004    4   0.342   1.737   3.822 -0.1787  0.0107 -0.0430
    1PEO   C005    5   0.315   1.691   3.966 -0.6358 -0.2407 -0.8255
    1PEO   H006    6   0.305   1.582   3.964  1.4396 -0.4713 -0.6604
    1PEO   H007    7   0.400   1.721   4.030 -1.3028  1.4322 -0.6600
    1PEO   O008    8   0.203   1.758   4.025  0.5240 -0.2096  0.3200
    1PEO   H009    9   0.222   1.678   4.218  1.9386  2.2539 -1.0050
    1PEO   H00A   10   0.106   1.598   4.112 -0.7685  0.5083  0.6259
    1PEO   C00B   11   0.145   1.696   4.142 -0.0727  0.2990  0.4116
    1PEO   C00C   12   0.034   1.795   4.182 -0.0692 -0.8961  0.0138
    1PEO   H00D   13   0.005   1.854   4.094  3.5056 -0.8819 -1.3173
    1PEO   H00E   14  -0.055   1.742   4.221  1.6834 -3.2872  1.0011
    1PEO   O00F   15   0.093   1.891   4.275 -0.0504 -0.0176 -0.6469
    1PEO   H010   16  -0.046   1.847   4.432  2.0465 -0.6498  3.5497
    1PEO   H011   17  -0.078   1.988   4.339 -1.2581 -1.5192  1.6401
    1PEO   C012   18   0.005   1.929   4.381 -0.2506 -1.0596  0.3407
    1PEO   C013   19   0.067   2.007   4.497 -0.4045  0.1288  0.0765
    1PEO   H014   20   0.133   2.079   4.446  2.9031 -2.2642  0.7178
    1PEO   H015   21  -0.005   2.060   4.561  1.5128  0.3027  2.2300
    1PEO   O016   22   0.145   1.916   4.576  0.8792 -0.0073 -0.0013
    1PEO   H017   23   0.233   2.064   4.707  0.9143 -1.0118 -1.6729
    1PEO   H018   24   0.310   1.912   4.713  0.0444  2.1354  3.1770
    1PEO   C019   25   0.210   1.957   4.701 -1.0066 -0.6901 -0.7501
    1PEO   C01A   26   0.120   1.922   4.816 -0.7309 -0.5125  0.2352
    1PEO   H01B   27   0.167   1.948   4.913  0.0918  0.2385 -0.3468
    1PEO   H01C   28   0.020   1.968   4.805 -0.3011  0.0893 -1.4920
    1PEO   O01D   29   0.095   1.778   4.810  0.3718  0.0163  0.0006
    1PEO   H01E   30   0.065   1.740   5.012 -0.8777 -2.0614  0.7866
    1PEO   H01F   31   0.017   1.600   4.910  0.2505 -0.2726  1.1612
    1PEO   C020   32   0.022   1.710   4.915 -0.0238 -0.1747 -0.2283
    1PEO   C021   33  -0.122   1.763   4.915  0.2124  0.8797  0.3182
    1PEO   H022   34  -0.170   1.722   5.005 -2.4850 -0.5005 -1.5918
    1PEO   H023   35  -0.131   1.870   4.935  0.4798  1.0757 -0.5458
    1PEO   O024   36  -0.200   1.717   4.796 -0.5067 -0.1410  0.4705
    1PEO   H025   37  -0.196   1.879   4.655  0.3396 -1.2707 -1.4752
    1PEO   H026   38  -0.342   1.867   4.758 -0.3340 -1.1874  0.4523
    1PEO   C027   39  -0.264   1.810   4.706  0.3031 -0.0876  0.1691
    1PEO   C028   40  -0.339   1.741   4.594  0.4216 -0.1346  0.0156
    1PEO   H029   41  -0.387   1.653   4.639 -1.3945  1.5142  1.4947
    1PEO   H02A   42  -0.422   1.806   4.563  1.0885  2.5918  3.3716
    1PEO   O02B   43  -0.262   1.708   4.482  0.1892 -0.1497 -0.3302
    1PEO   H02C   44  -0.416   1.750   4.333  1.3178  0.0428 -0.8008
    1PEO   H02D   45  -0.431   1.597   4.405  0.1175  0.3744  0.3443
    1PEO   C02E   46  -0.354   1.666   4.366  0.5100 -0.2664 -0.0296
    1PEO   C02F   47  -0.285   1.619   4.235 -0.0561 -0.1262 -0.6179
    1PEO   H030   48  -0.355   1.565   4.170 -0.5948  0.7577 -0.7797
    1PEO   H031   49  -0.240   1.711   4.195 -0.0719 -0.1476 -0.6834
    1PEO   O032   50  -0.188   1.530   4.282 -0.6010  0.6683  0.6491
    1PEO   H033   51  -0.017   1.435   4.207  0.3118 -1.8481 -1.0979
    1PEO   H034   52  -0.115   1.516   4.093 -2.3906 -0.5032  0.1900
    1PEO   C035   53  -0.122   1.452   4.182  0.1187 -0.4537  0.5029
    1PEO   C036   54  -0.205   1.331   4.153  0.0287 -0.1642  0.6750
    1PEO   H037   55  -0.260   1.295   4.241 -0.4289 -0.3672  0.3098
    1PEO   H038   56  -0.286   1.346   4.079  0.4428  0.8029  0.4035
    1PEO   O039   57  -0.118   1.229   4.106 -0.0588 -0.2521  0.0438
    1PEO   H03A   58   0.047   1.179   3.998  0.3791  1.1753 -2.9868
    1PEO   H03B   59   0.022   1.359   4.004 -0.5781  1.4303  0.6506
    1PEO   C03C   60  -0.027   1.261   3.998  0.1862  1.0808 -0.0660
    1PEO   C03D   61  -0.108   1.259   3.863  0.6575 -0.4970 -0.2475
    1PEO   H03E   62  -0.048   1.229   3.775 -1.6298 -1.2667 -1.6140
    1PEO   H03F   63  -0.174   1.174   3.883 -0.8119  0.9732  1.4997
    1PEO   O040   64  -0.183   1.380   3.842 -0.8300 -0.4364  0.1179
    1PEO   H041   65  -0.146   1.461   3.654  1.4978  2.6415 -0.2854
    1PEO   H042   66  -0.014   1.486   3.778  0.8207 -0.2353 -2.4676
    1PEO   C043   67  -0.122   1.479   3.760  0.2391 -0.6534  0.7052
    1PEO   C044   68  -0.162   1.626   3.803  0.2918 -0.2673 -0.0821
    1PEO   H045   69  -0.096   1.661   3.883  0.5289 -0.0851 -0.3551
    1PEO   H046   70  -0.142   1.690   3.716 -1.9812  1.9393  0.8936
    1PEO   O047   71  -0.304   1.624   3.835  0.8515 -0.3229 -0.0950
    1PEO   H048   72  -0.490   1.721   3.837 -0.3238  1.1706  0.1432
    1PEO   H049   73  -0.363   1.789   3.725  1.8757 -1.9889 -0.4801
    1PEO   C04A   74  -0.383   1.745   3.824  0.0092 -0.3518 -0.0506
    1PEO   C04B   75  -0.340   1.854   3.926  0.4821  0.1874 -0.2319
    1PEO   H04C   76  -0.417   1.932   3.927  0.6697  0.3733  0.1693
    1PEO   H04D   77  -0.339   1.819   4.031  1.0117  1.9385  0.3754
    1PEO   O04E   78  -0.215   1.914   3.883 -0.4210 -0.2735 -0.4920
    1PEO   H04F   79  -0.166   1.998   4.055  1.0801 -2.2382 -0.1487
    1PEO   H050   80  -0.265   2.111   3.946  2.7594  1.4337 -2.9990
    1PEO   C051   81  -0.189   2.032   3.953  0.0235 -1.1736  0.4195
    1PEO   C052   82  -0.052   2.093   3.894  0.0977  0.4414  0.5614
    1PEO   H053   83  -0.026   2.179   3.958 -1.6197  1.1701  0.3261
    1PEO   H054   84   0.039   2.032   3.905  0.4333  0.7035 -0.5982
    1PEO   O055   85  -0.080   2.130   3.759 -0.6894  0.2810  0.0654
    1PEO   H056   86  -0.162   2.016   3.605 -1.0745 -4.6807  1.7857
    1PEO   H057   87  -0.056   1.923   3.711 -2.2763 -1.2710 -0.0376
    1PEO   C058   88  -0.071   2.022   3.666 -0.1230 -0.7775  0.2568
    1PEO   C059   89   0.063   2.036   3.586  0.0015 -0.5215 -0.1980
    1PEO   H05A   90   0.135   2.092   3.647  0.5673  1.3165 -2.4044
    1PEO   H05B   91   0.108   1.940   3.556  1.6916  0.1869 -0.0145
    1PEO   O05C   92   0.040   2.118   3.471 -0.1500 -0.2263  0.0118
    1PEO   H05D   93  -0.148   2.047   3.386 -0.2503 -0.1841  1.7487
    1PEO   H05E   94  -0.002   1.957   3.336  0.0355 -0.3253 -1.8307
    1PEO   C05F   95  -0.041   2.056   3.365 -0.6260 -0.8559 -0.8105
    1PEO   C060   96  -0.014   2.138   3.239 -0.0018 -0.5907 -0.1281
    1PEO   H061   97   0.096   2.139   3.233 -0.0636  0.1111 -1.3882
    1PEO   H062   98  -0.062   2.090   3.153 -0.8688 -1.9834  1.0750
    1PEO   O063   99  -0.066   2.271   3.261 -0.3393 -0.3662  0.1492
    1PEO   H064  100   0.057   2.328   3.098 -1.1770 -0.4364 -0.9284
    1PEO   H065  101  -0.026   2.449   3.161  0.4636  0.3000 -2.4284
    1PEO   C066  102  -0.043   2.342   3.142 -0.8496  0.0670 -0.3156
    1PEO   C067  103  -0.165   2.325   3.043 -0.4286  0.0446  0.4178
    1PEO   H068  104  -0.265   2.322   3.090 -0.4779  3.4182  0.8007
    1PEO   H069  105  -0.168   2.417   2.982 -2.3818  0.1422  0.5684
    1PEO   O06A  106  -0.142   2.208   2.954  0.3267  0.2419 -0.2166
    1PEO   H06B  107  -0.215   2.255   2.762 -1.0779  4.0416  1.7425
    1PEO   H06C  108  -0.338   2.223   2.881 -0.3558  0.5675 -3.0394
    1PEO   C06D  109  -0.237   2.193   2.850  0.2781 -0.1204 -0.5654
    1PEO   C06E  110  -0.245   2.040   2.817  1.1777 -0.1361 -0.4701
    1PEO   H06F  111  -0.204   1.978   2.899  0.1185 -0.4882 -0.1822
    1PEO   H070  112  -0.351   2.011   2.819  1.0017  0.5153  1.5316
    1PEO   O071  113  -0.183   2.007   2.694 -0.0947  0.2080 -0.1473
    1PEO   H072  114  -0.236   1.810   2.694 -0.0484 -0.5695 -0.3061
    1PEO   H073  115  -0.058   1.852   2.749  1.8606  1.7394 -1.6750
    1PEO   C074  116  -0.144   1.869   2.683 -0.1834 -0.2395  0.2887
    1PEO   C075  117  -0.096   1.826   2.541  0.1664 -0.8109  0.1476
    1PEO   H076  118  -0.103   1.716   2.539  2.1610 -1.2158  4.1712
    1PEO   H077  119  -0.164   1.868   2.466 -0.6930 -1.7871  0.3612
    1PEO   O078  120   0.039   1.854   2.514  0.3649 -0.3074  0.3486
    1PEO   H079  121   0.138   1.686   2.443 -0.7166  0.2739  0.1342
    1PEO   H07A  122   0.195   1.832   2.372  0.9979 -2.1462 -0.2206
    1PEO   C07B  123   0.103   1.783   2.407 -0.2987  0.4382  0.1641
    1PEO   C07C  124   0.012   1.744   2.288  0.4276 -0.0877 -0.3867
    1PEO   H07D  125   0.049   1.663   2.223 -2.5033 -2.1336  0.2938
    1PEO   H07E  126  -0.084   1.705   2.325  1.4765  0.2430  3.0739
    1PEO   O07F  127  -0.033   1.867   2.227  0.2719 -0.0596 -0.9686
    1PEO   H080  128  -0.093   1.768   2.041 -0.0628  1.2224 -3.5057
    1PEO   H081  129   0.043   1.876   2.030  0.9298 -0.8472  0.8379
    1PEO   C082  130  -0.054   1.863   2.080  0.3295 -0.1877 -0.1288
    1PEO   C083  131  -0.145   1.977   2.040 -0.2409 -0.5369  1.3322
    1PEO   H084  132  -0.083   2.061   2.073 -0.5792 -0.6315  2.2538
    1PEO   H085  133  -0.165   1.973   1.932  2.1083  1.2422  0.7439
    1PEO   O086  134  -0.258   1.961   2.119  0.4376 -0.4356 -0.9925
    1PEO   H087  135  -0.308   1.777   2.031 -1.0143  0.4405 -1.7363
    1PEO   H088  136  -0.418   1.907   2.007  0.4950 -1.1598 -1.4382
    1PEO   C089  137  -0.353   1.863   2.084 -0.6971 -0.4389  0.0462
    1PEO   C08A  138  -0.427   1.811   2.206 -0.2248 -0.0243 -0.7179
    1PEO   H08B  139  -0.473   1.716   2.175 -1.7132  0.5658 -0.4409
    1PEO   H08C  140  -0.357   1.795   2.289 -0.0301  5.0265  0.4201
    1PEO   O08D  141  -0.532   1.895   2.255  0.2296 -0.5382 -0.6578
    1PEO   H08E  142  -0.463   2.082   2.201  3.0333  1.9719  1.8678
    1PEO   H08F  143  -0.394   2.028   2.344  0.7764 -1.9671 -2.1697
    1PEO   C090  144  -0.490   2.024   2.290 -0.5383  0.2154 -0.1636
    1PEO   C091  145  -0.592   2.102   2.366 -0.7687  0.0541  0.4463
    1PEO   H092  146  -0.558   2.204   2.387  1.1277 -0.5608  0.5674
    1PEO   H093  147  -0.688   2.105   2.314 -0.3985 -2.5077 -0.5526
    1PEO   O094  148  -0.601   2.027   2.489 -0.1133 -0.5187  0.6617
    1PEO   H095  149  -0.777   2.108   2.539  0.1390  0.5794 -0.8962
    1PEO   H096  150  -0.646   2.202   2.610  1.9298 -0.3190 -0.1443
    1PEO   C097  151  -0.678   2.100   2.587 -0.3779  0.2822  0.1475
    1PEO   C098  152  -0.682   2.025   2.727  0.2253 -0.3750 -0.3920
    1PEO   H099  153  -0.582   1.986   2.755  1.5385  2.3848 -0.9306
    1PEO   H09A  154  -0.715   2.094   2.805 -1.4731 -0.1150 -1.3078
    1PEO   O09B  155  -0.777   1.924   2.698  0.6265 -0.1935 -0.8779
    1PEO   H09C  156  -0.818   1.829   2.889  1.2919 -4.0035  2.5617
    1PEO   H09D  157  -0.682   1.769   2.791 -0.6361  0.3865 -0.1078
    1PEO   C09E  158  -0.783   1.812   2.787 -0.9232 -0.1310  0.9503
    1PEO   C09F  159  -0.877   1.711   2.719  0.3611 -0.1193 -0.8238
    1PEO   H0A0  160  -0.922   1.659   2.804  0.7502  1.2357  0.2383
    1PEO   H0A1  161  -0.970   1.757   2.684 -0.6840 -2.2747 -1.0782
    1PEO   O0A2  162  -0.815   1.619   2.634 -0.4896 -0.0282  0.6639
    1PEO   H0A3  163  -0.801   1.781   2.502 -0.0863 -0.4501 -0.8875
    1PEO   H0A4  164  -0.798   1.617   2.434 -1.5885  0.2893  0.1597
    1PEO   C0A5  165  -0.761   1.680   2.517  0.0222 -0.2916 -0.0660
    1PEO   C0A6  166  -0.609   1.678   2.532 -0.9767  0.0957  0.0642
    1PEO   H0A7  167  -0.577   1.707   2.431 -0.3638  1.3000  0.5846
    1PEO   H0A8  168  -0.568   1.747   2.608 -1.3740 -0.2209  0.5739
    1PEO   O0A9  169  -0.569   1.545   2.551  0.1034  0.0562 -0.0804
    1PEO   H0AA  170  -0.372   1.570   2.619  1.1480 -0.2721 -1.4576
    1PEO   H0AB  171  -0.397   1.514   2.452  3.8211  1.1402  1.1582
    1PEO   C0AC  172  -0.432   1.503   2.556 -0.4693 -0.0399 -0.2301
    1PEO   C0AD  173  -0.424   1.346   2.598  0.6016 -0.4832  0.0564
    1PEO   H0AE  174  -0.488   1.283   2.535 -0.7072 -0.8630  1.6743
    1PEO   H0AF  175  -0.321   1.312   2.613  1.3238  1.6403  0.1226
    1PEO   O0B0  176  -0.485   1.341   2.731 -0.5157 -0.1642 -0.5154
    1PEO   H0B1  177  -0.469   1.413   2.944  1.3840 -0.6249  0.8522
    1PEO   H0B2  178  -0.473   1.535   2.821  0.0066 -0.9881 -1.7827
    1PEO   C0B3  179  -0.435   1.434   2.842 -0.3176 -0.7449  0.2261
    1PEO   C0B4  180  -0.279   1.451   2.857  0.3760 -0.0800  0.5619
    1PEO   H0B5  181  -0.236   1.469   2.757 -1.2920  0.2475 -0.1264
    1PEO   H0B6  182  -0.256   1.542   2.915 -1.3336 -0.4473  1.9125
    1PEO   O0B7  183  -0.219   1.331   2.898 -0.8265 -0.4697 -0.1291
    1PEO   H0B8  184  -0.059   1.410   2.996 -1.5560 -0.0898  0.5521
    1PEO   H0B9  185  -0.031   1.391   2.818  0.9422 -0.2390  1.0010
    1PEO   C0BA  186  -0.079   1.348   2.907 -0.3281 -0.2135  0.3493
    1PEO   C0BB  187  -0.019   1.212   2.954  0.3732 -0.3637  0.6145
    1PEO   H0BC  188   0.087   1.209   2.982  0.7302  1.5023 -0.3543
    1PEO   H0BD  189  -0.077   1.166   3.035 -0.8427 -1.8709 -1.0167
    1PEO   O0BE  190  -0.034   1.128   2.828  0.1330 -0.4119 -0.3451
    1PEO   H0BF  191  -0.033   0.939   2.768 -2.1882 -0.2984  0.8412
    1PEO   H0C0  192  -0.012   0.953   2.944 -1.3659  0.3177 -0.6595
    1PEO   C0C1  193   0.016   0.996   2.847  0.3643 -0.4541 -0.5267
    1PEO   C0C2  194   0.175   0.978   2.840  0.1539  0.0827 -0.2411
    1PEO   H0C3  195   0.212   1.068   2.891 -1.3295  0.7706 -0.3191
    1PEO   H0C4  196   0.211   0.888   2.892 -0.4947  1.4090  2.7396
    1PEO   O0C5  197   0.217   0.970   2.704 -0.4783  0.3406  0.4432
    1PEO   H0C6  198   0.397   0.851   2.721 -0.1495  0.3053  1.9113
    1PEO   H0C7  199   0.408   1.020   2.768  0.1999 -2.0590  2.6336
    1PEO   C0C8  200   0.362   0.952   2.694  0.9237  0.2050 -0.0740
    1PEO   C0C9  201   0.396   0.984   2.548 -0.4461 -0.1865 -0.1479
    1PEO   H0CA  202   0.340   1.070   2.508 -1.1806  0.5626  2.3117
    1PEO   H0CB  203   0.503   1.006   2.540  0.0288  0.4402  4.8223
    1PEO   O0CC  204   0.371   0.863   2.471 -0.3056 -0.2028 -0.3595
    1PEO   H0CD  205   0.483   0.915   2.294 -0.5033 -2.4282 -2.9999
    1PEO   H0CE  206   0.319   0.950   2.289  1.7755  1.1119 -0.4716
    1PEO   C0CF  207   0.388   0.875   2.332 -0.1712  0.2327  1.3574
    1PEO   C0D0  208   0.370   0.741   2.261 -0.4647 -0.8711 -0.3580
    1PEO   H0D1  209   0.267   0.715   2.289 -1.4572  0.7158 -2.2981
    1PEO   H0D2  210   0.392   0.756   2.154 -0.8418  0.8687 -0.2165
    1PEO   O0D3  211   0.469   0.645   2.314  0.0057  0.0044  0.0931
    1PEO   H0D4  212   0.420   0.488   2.172 -2.8669 -1.6411  0.8391
    1PEO   H0D5  213   0.359   0.465   2.330 -1.5317 -0.0123 -2.9028
    1PEO   C0D6  214   0.445   0.509   2.277  0.3473 -0.0120 -0.1165
    1PEO   C0D7  215   0.560   0.424   2.314  0.0087  0.9847 -0.4666
    1PEO   H0D8  216   0.592   0.458   2.414 -0.5328 -2.3147  0.9421
    1PEO   H0D9  217   0.523   0.321   2.325 -0.0001  0.9401 -0.9106
    1PEO   O0DA  218   0.671   0.425   2.218 -0.0038  0.0821 -0.5673
    1PEO   H0DB  219   0.540   0.367   2.063 -0.1423  1.4901  1.5978
    1PEO   H0DC  220   0.659   0.246   2.117 -0.4280  0.3073  0.4575
    1PEO   C0DD  221   0.644   0.353   2.096  0.2610  0.3128 -0.0421
    1PEO   C0DE  222   0.748   0.406   1.988  0.6558 -0.6059  0.8096
    1PEO   H0DF  223   0.727   0.371   1.886  1.8830 -1.4401  0.8162
    1PEO   H0E0  224   0.737   0.514   1.998 -1.6079 -0.8638  1.6068
    1PEO   O0E1  225   0.874   0.369   2.032  0.3810 -0.0397  0.2703
    1PEO   H0E2  226   0.975   0.260   1.886 -3.3637 -3.3822 -2.5051
    1PEO   H0E3  227   0.868   0.165   1.999  1.4248 -0.4782 -1.5253
    1PEO   C0E4  228   0.935   0.251   1.988  0.3974  0.5036 -0.3971
    1PEO   C0E5  229   1.067   0.243   2.072 -0.5911  0.8134  0.4309
    1PEO   H0E6  230   1.141   0.199   2.004  0.0181  0.5699  1.2389
    1PEO   H0E7  231   1.093   0.348   2.093  2.0504  0.4265 -0.6207
    1PEO   O0E8  232   1.050   0.169   2.197  0.7035  0.3683  0.1360
    1PEO   H0E9  233   0.874   0.270   2.287 -1.4623 -2.3980  3.9713
    1PEO   H0EA  234   1.035   0.338   2.318  0.3587 -0.0150  1.1175
    1PEO   C0EB  235   0.980   0.244   2.302  0.0259  0.3542 -0.0082
    1PEO   C0EC  236   0.985   0.160   2.438  0.2444 -0.0465 -0.6000
    1PEO   H0ED  237   0.914   0.210   2.506  0.3359  0.6691 -1.0159
    1PEO   H0EE  238   0.949   0.061   2.407  2.8321 -0.5121 -2.4441
    1PEO   O0EF  239   1.119   0.162   2.495  0.4541 -0.2268  0.7786
    1PEO   H0F0  240   1.260   0.043   2.568  0.5486 -0.8477 -3.7114
    1PEO   H0F1  241   1.120  -0.038   2.492 -1.5773 -0.0251 -0.0924
    1PEO   C0F2  242   1.150   0.042   2.561  0.2469 -0.3194 -0.5004
    1PEO   C0F3  243   1.079   0.037   2.697  0.1385 -0.5776 -0.5657
    1PEO   H0F4  244   1.141  -0.033   2.754 -1.1827 -1.1392  0.2262
    1PEO   H0F5  245   1.070   0.137   2.741 -0.0441 -2.2208  3.5734
    1PEO   O0F6  246   0.940  -0.001   2.679  0.2407 -0.8563  0.5163
    1PEO   H0F7  247   0.890  -0.059   2.879 -0.8020 -0.6581 -0.5574
    1PEO   H0F8  248   0.756  -0.037   2.776 -1.7741  4.1540  0.4995
    1PEO   C0F9  249   0.857   0.003   2.794  0.1486  0.2058 -0.3215
    1PEO   C0FA  250   0.813   0.151   2.821  0.1455  0.4188 -0.1817
    1PEO   H0FB  251   0.807   0.186   2.717 -0.4459 -0.1742 -0.3510
    1PEO   H0FC  252   0.714   0.160   2.866  0.9501  1.6165  1.4523
    1PEO   O0FD  253   0.910   0.224   2.897  0.1152 -0.3456 -0.5161
    1PEO   H0FE  254   0.980   0.088   3.038 -2.6562 -0.4560  0.4737
    1PEO   H0FF  255   0.826   0.179   3.075 -0.2008 -0.1715  0.2716
    1PEO   C100  256   0.928   0.185   3.034 -0.3372  0.8519  0.0613
    1PEO   C101  257   1.002   0.283   3.110 -0.3827 -0.6491 -0.1608
    1PEO   H102  258   1.044   0.235   3.199 -0.3281  0.0475  0.1884
    1PEO   H103  259   1.078   0.313   3.036 -1.6496  0.7690 -0.9296
    1PEO   O104  260   0.921   0.400   3.139  0.3454 -0.1825  0.7441
    1PEO   H105  261   0.840   0.319   3.325  5.2914 -1.1918 -1.9588
    1PEO   H106  262   0.732   0.336   3.174  0.3542  0.9682 -2.2510
    1PEO   C107  263   0.815   0.375   3.234 -0.4354 -0.3406 -0.2109
    1PEO   C108  264   0.772   0.515   3.277 -0.3248  0.3142 -0.2451
    1PEO   H109  265   0.738   0.577   3.192 -0.7349  1.5724  0.7986
    1PEO   H10A  266   0.681   0.503   3.337 -0.9800  0.5896 -1.1494
    1PEO   O10B  267   0.871   0.588   3.352 -0.0180  0.5269 -0.3704
    1PEO   H10C  268   0.746   0.741   3.420 -0.3803 -0.9520 -0.5557
    1PEO   H10D  269   0.829   0.759   3.260  1.8094 -0.5637  0.2158
    1PEO   C10E  270   0.840   0.725   3.364  0.4821 -0.0148  0.5571
    1PEO   C10F  271   0.950   0.801   3.433 -0.5865  0.1317 -0.1327
    1PEO   H110  272   1.038   0.782   3.369 -3.1224 -2.0348 -3.3285
    1PEO   H111  273   0.938   0.910   3.426 -0.1669  0.2253  0.5185
    1PEO   O112  274   0.960   0.742   3.563 -0.2982  0.3284 -0.2573
    1PEO   H113  275   1.083   0.902   3.631 -3.2526  0.4868 -0.9229
    1PEO   H114  276   1.160   0.748   3.583 -0.5152  0.4885 -1.0920
    1PEO   C115  277   1.074   0.792   3.635 -0.3220  0.1610 -0.4875
    1PEO   C116  278   1.075   0.753   3.781  0.1133  1.0582 -0.3697
    1PEO   H117  279   1.051   0.645   3.789  3.4811  0.1280 -1.1190
    1PEO   H118  280   1.173   0.771   3.826  0.4424 -1.6097  0.1615
    1PEO   O119  281   0.967   0.816   3.853 -0.5819  0.0032 -0.0291
    1PEO   H11A  282   1.038   0.814   4.045 -0.2789  1.8752  0.5592
    1PEO   H11B  283   0.928   0.674   3.996 -2.0424 -0.4616 -1.1625
    1PEO   C11C  284   0.951   0.781   3.986  1.1436 -0.9461 -0.1600
    1PEO   C11D  285   0.837   0.874   4.038  0.4555 -0.5752  0.2134
    1PEO   H11E  286   0.743   0.866   3.981 -0.6495 -1.3398  2.0269
    1PEO   H11F  287   0.802   0.844   4.138 -0.7686 -0.5750 -0.1946
    1PEO   O120  288   0.881   1.005   4.045  0.4751 -0.2140  0.1292
    1PEO   H121  289   0.710   1.060   4.165  1.4043  2.1490  0.6331
    1PEO   H122  290   0.716   1.104   3.986 -0.4076 -1.5029 -0.2114
    1PEO   C123  291   0.772   1.090   4.079  0.8046 -0.1422 -0.6990
    1PEO   C124  292   0.824   1.230   4.119 -0.3322 -0.3251  0.9067
    1PEO   H125  293   0.741   1.286   4.162 -0.3913  0.0675  0.2907
    1PEO   H126  294   0.904   1.210   4.193  1.1291  0.5214 -0.3906
    1PEO   O127  295   0.883   1.296   4.004  0.5177  0.0328 -0.1418
    1PEO   H128  296   1.057   1.386   4.105  0.8169  0.6107 -1.6770
    1PEO   H129  297   0.902   1.472   4.109 -1.4679  1.3908 -0.6548
    1PEO   C12A  298   0.967   1.408   4.047 -0.7044  0.8671  0.6412
    1PEO   C12B  299   1.017   1.491   3.923 -0.1080 -0.3370 -0.2492
    1PEO   H12C  300   1.120   1.455   3.906  0.5650  1.4569 -0.0939
    1PEO   H12D  301   0.951   1.467   3.838 -0.6919  1.0892 -0.2186
    1PEO   O12E  302   1.009   1.633   3.947  0.9308 -0.1462  0.1389
    1PEO   H12F  303   1.200   1.657   3.880  0.6182  0.9355 -0.1223
    1PEO   H130  304   1.112   1.810   3.912 -1.9082  0.1895 -0.8319
    1PEO   C131  305   1.104   1.709   3.868  0.0966 -0.1080 -0.6131
    1PEO   C132  306   1.058   1.722   3.721  0.2116 -0.5227  0.1209
    1PEO   H133  307   0.949   1.739   3.716  0.2321 -0.6555 -3.8296
    1PEO   H134  308   1.093   1.809   3.664  2.5277 -1.7299 -0.4064
    1PEO   O135  309   1.079   1.598   3.649 -0.5922 -0.4614 -0.1661
    1PEO   H136  310   1.130   1.557   3.445  0.3831 -1.5150  1.1696
    1PEO   H137  311   1.087   1.720   3.476  1.5379 -0.2360 -0.3824
    1PEO   C138  312   1.059   1.617   3.503  0.1637  0.0599 -0.6347
    1PEO   C139  313   0.910   1.595   3.463 -0.2166  0.4096 -0.4668
    1PEO   H13A  314   0.844   1.682   3.477 -3.3278 -1.8391 -0.0374
    1PEO   H13B  315   0.911   1.593   3.353 -2.0105  0.0331 -0.5040
    1PEO   O13C  316   0.857   1.476   3.534 -0.1145  0.4674 -0.1738
    1PEO   H13D  317   0.986   1.316   3.554  1.5519  0.6145 -0.3725
    1PEO   H13E  318   0.939   1.346   3.388 -1.6434  1.5914  0.3603
    1PEO   C13F  319   0.901   1.346   3.491  0.1807 -0.1146  1.0850
    1PEO   C140  320   0.786   1.242   3.489  0.7502 -0.4886 -0.6317
    1PEO   H141  321   0.813   1.135   3.494 -2.4313 -1.3660 -0.2080
    1PEO   H142  322   0.736   1.264   3.585  0.4024 -0.8034 -0.7361
    1PEO   O143  323   0.698   1.259   3.382  0.7334  0.2039 -0.1539
    1PEO   H144  324   0.681   1.452   3.321 -0.6174  0.6456  0.4195
    1PEO   H145  325   0.577   1.417   3.466  1.8304  1.3573  0.9993
    1PEO   C146  326   0.620   1.376   3.373 -0.8835  0.5668 -0.0069
    1PEO   C147  327   0.504   1.336   3.290  1.2080 -0.3137 -0.0648
    1PEO   H148  328   0.450   1.243   3.313 -0.5979  0.2434 -1.7710
    1PEO   H149  329   0.428   1.412   3.310  0.0950 -0.7088 -2.4429
    1PEO   O14A  330   0.542   1.341   3.153 -0.1371 -0.5348 -0.1947
    1PEO   H14B  331   0.335   1.363   3.090 -0.3083  0.6385 -0.4407
    1PEO   H14C  332   0.412   1.203   3.080  0.3074  0.3177  1.6381
    1PEO   C14D  333   0.430   1.311   3.070 -0.5787  0.2984 -0.8552
    1PEO   C14E  334   0.452   1.348   2.924 -0.1498  0.6123 -0.3711
    1PEO   H14F  335   0.352   1.347   2.878  0.2727 -1.2865 -1.3853
    1PEO   H150  336   0.499   1.445   2.907 -2.5551  2.0259  0.4690
    1PEO   O151  337   0.538   1.244   2.863  0.5668 -0.0445 -0.4909
    1PEO   H152  338   0.714   1.267   2.985 -0.7109  0.4837  0.9387
    1PEO   H153  339   0.700   1.368   2.833 -0.4652 -0.5306  0.1567
    1PEO   C154  340   0.679   1.271   2.880  0.0649 -0.4236  0.6255
    1PEO   C155  341   0.756   1.169   2.800 -0.7965  0.1099 -0.2419
    1PEO   H156  342   0.861   1.182   2.830 -1.3666  2.2708  1.0015
    1PEO   H157  343   0.714   1.070   2.822 -3.1405  1.0154 -0.3552
    1PEO   O158  344   0.754   1.210   2.664  0.1931  0.0771 -0.2508
    1PEO   H159  345   0.796   1.025   2.577 -0.1130  0.2800 -0.3612
    1PEO   H15A  346   0.942   1.125   2.619  1.6338 -1.1128 -1.1525
    1PEO   C15B  347   0.838   1.127   2.583  1.0749 -0.2326  0.3914
    1PEO   C15C  348   0.833   1.199   2.442 -0.2764 -0.3116 -0.4557
    1PEO   H15D  349   0.852   1.307   2.452  1.1067 -0.6386  0.9096
    1PEO   H15E  350   0.917   1.155   2.386  0.4370 -0.0568  0.3981
    1PEO   O15F  351   0.708   1.172   2.375  0.0966  0.2848 -0.9249
    1PEO   H160  352   0.770   1.194   2.183  1.6723  1.7713  0.5599
    1PEO   H161  353   0.712   1.340   2.254  0.5924 -0.3899  1.2480
    1PEO   C162  354   0.691   1.233   2.249  0.3319 -0.2980  0.2467
    1PEO   C163  355   0.551   1.213   2.178 -0.2500  0.0293  0.3071
    1PEO   H164  356   0.548   1.269   2.083  0.5683 -0.1440  0.1739
    1PEO   H165  357   0.548   1.105   2.159 -0.0639  0.3218 -1.5355
    1PEO   O166  358   0.447   1.261   2.266 -0.6974 -0.5636 -0.2102
    1PEO   H167  359   0.318   1.117   2.216 -2.1433 -0.5317 -0.3873
    1PEO   H168  360   0.314   1.247   2.102  0.9821 -0.6184  0.0831
    1PEO   C169  361   0.325   1.226   2.210  0.2581 -0.6002  0.1612
    1PEO   C16A  362   0.199   1.281   2.287 -0.3830  0.3020 -1.0973
    1PEO   H16B  363   0.217   1.380   2.330 -0.3149  0.1900 -0.8661
    1PEO   H16C  364   0.114   1.288   2.218  1.3193 -1.2920 -3.5154
    1PEO   O16D  365   0.172   1.190   2.396  0.2785  0.7518 -0.1950
    1PEO   H16E  366   0.085   1.337   2.510 -1.4432 -0.4821  3.1927
    1PEO   H16F  367   0.078   1.167   2.577  1.3917  1.5522  2.0218
    1PEO   C170  368   0.070   1.230   2.487 -0.0742 -0.2296  0.8081
    1PEO   C171  369  -0.068   1.214   2.430  0.4723 -0.2678  0.1027
    1PEO   H172  370  -0.073   1.127   2.363  2.6357  0.0740 -0.5806
    1PEO   H173  371  -0.133   1.198   2.517 -0.1760  0.9202 -0.1337
    1PEO   O174  372  -0.108   1.331   2.347 -0.6002 -0.0908 -0.1828
    1PEO   H175  373  -0.320   1.316   2.352  0.2125 -1.1303  1.0306
    1PEO   H176  374  -0.243   1.243   2.211 -1.1027  1.5378 -1.3164
    1PEO   C177  375  -0.236   1.327   2.282 -0.5018  0.1658  0.3487
    1PEO   C178  376  -0.245   1.470   2.222  0.4693 -0.5099 -0.1138
    1PEO   H179  377  -0.336   1.477   2.161  1.4055  0.3549 -1.4767
    1PEO   H17A  378  -0.229   1.549   2.297 -1.0877 -0.6353  0.3846
    1PEO   O17B  379  -0.132   1.484   2.134 -0.3230 -0.1299 -0.3001
    1PEO   H17C  380  -0.221   1.345   2.001 -1.2984  1.5047  1.8881
    1PEO   H17D  381  -0.047   1.354   2.003 -0.4063 -0.6776 -0.4437
    1PEO   C17E  382  -0.138   1.417   2.005  0.1384  0.1246 -0.6002
    1PEO   C17F  383  -0.131   1.521   1.889 -0.0667  0.9865  0.7461
    1PEO   H180  384  -0.053   1.593   1.915  0.6878 -0.0589  1.4536
    1PEO   H181  385  -0.087   1.462   1.807  1.9638  1.9320  1.0973
    1PEO   O182  386  -0.259   1.572   1.859 -0.1031 -0.4925 -0.9574
    1PEO   H183  387  -0.347   1.378   1.841  0.4364  0.0390  0.5532
    1PEO   H184  388  -0.359   1.490   1.698 -1.3021 -2.1614  0.0430
    1PEO   C185  389  -0.359   1.483   1.808  0.0373 -0.1047  0.2332
    1PEO   C186  390  -0.499   1.544   1.841 -0.1819 -0.2447 -0.1208
    1PEO   H187  391  -0.493   1.646   1.803  0.1923 -0.6522 -1.1895
    1PEO   H188  392  -0.574   1.494   1.777 -1.2774 -2.0703  2.4021
    1PEO   O189  393  -0.535   1.523   1.982 -0.1496  0.4890  0.5113
    1PEO   H18A  394  -0.743   1.473   1.966 -4.1011  3.1652  0.3763
    1PEO   H18B  395  -0.701   1.639   1.995 -1.9390  0.1964  0.4927
    1PEO   C18C  396  -0.672   1.536   2.021 -0.7872  0.3038 -0.3166
    1PEO   C18D  397  -0.697   1.497   2.173 -0.3863 -0.2995 -0.0999
    1PEO   H18E  398  -0.630   1.558   2.236 -0.6240  0.4040 -0.5093
    1PEO   H18F  399  -0.797   1.507   2.219 -0.4301 -1.5566  0.1050
    1PEO   O190  400  -0.657   1.361   2.195  0.0919  0.0386  0.0391
    1PEO   H191  401  -0.813   1.283   2.300 -0.2605 -0.4295 -0.6724
    1PEO   H192  402  -0.682   1.358   2.408  0.6426 -0.4022  0.7409
    1PEO   C193  403  -0.706   1.300   2.318 -0.5661  0.2289  0.6342
    1PEO   C194  404  -0.646   1.156   2.328 -0.0293 -0.1276 -0.2973
    1PEO   H195  405  -0.689   1.120   2.423  0.9806  0.0783  0.2505
    1PEO   H196  406  -0.691   1.099   2.245 -1.8060 -1.4301  1.4639
    1PEO   O197  407  -0.498   1.156   2.321  0.0216 -0.0128  0.0440
    1PEO   H198  408  -0.337   1.032   2.306 -0.6246  0.4403 -3.7529
    1PEO   H199  409  -0.485   0.960   2.242 -1.3072  0.5011 -0.3342
    1PEO   C19A  410  -0.445   1.022   2.323 -0.0724 -0.7290  0.0484
    1PEO   C19B  411  -0.477   0.953   2.462  0.4287  0.1441  0.0275
    1PEO   H19C  412  -0.397   0.880   2.483  0.2364 -0.1149 -0.1364
    1PEO   H19D  413  -0.480   1.031   2.540 -0.0089  2.8180 -2.4945
    1PEO   O19E  414  -0.603   0.892   2.457  0.5585 -0.1506 -0.2478
    1PEO   H19F  415  -0.552   0.704   2.559 -0.5153  0.0589 -1.3210
    1PEO   H1A0  416  -0.722   0.734   2.530  0.2711  0.2810  0.0051
    1PEO   C1A1  417  -0.627   0.784   2.555  0.1015  0.7112 -0.2025
    1PEO   C1A2  418  -0.643   0.849   2.695 -0.7858  0.6341  0.7805
    1PEO   H1A3  419  -0.614   0.773   2.769  2.1422 -0.2212 -1.0499
    1PEO   H1A4  420  -0.567   0.928   2.704  1.2005 -0.6369 -2.8167
    1PEO   O1A5  421  -0.773   0.889   2.723  0.0916 -0.2892  0.3188
    1PEO   H1A6  422  -0.938   0.993   2.658 -0.3307  0.4267 -1.0683
    1PEO   H1A7  423  -0.812   0.977   2.532  1.4729 -0.7267  0.3004
    1PEO   C1A8  424  -0.830   0.995   2.638 -0.1493  0.3620 -0.1294
    1PEO   C1A9  425  -0.773   1.140   2.672  0.5200  0.3726 -0.2844
    1PEO   H1AA  426  -0.666   1.140   2.646  0.8793  3.3922  0.7879
    1PEO   H1AB  427  -0.823   1.205   2.599  1.5153  1.8319  0.2838
    1PEO   O1AC  428  -0.806   1.173   2.804 -0.2751 -0.4143 -0.1210
    1PEO   H1AD  429  -0.837   1.371   2.753 -1.9495 -3.5837 -1.0362
    1PEO   H1AE  430  -0.680   1.331   2.839  0.7476  2.0531 -0.5918
    1PEO   C1AF  431  -0.788   1.311   2.830  0.9951  0.1187  0.2686
    1PEO   C1B0  432  -0.868   1.351   2.954 -0.4458 -0.4891  0.9402
    1PEO   H1B1  433  -0.837   1.293   3.042 -2.7663 -2.4005  0.5924
    1PEO   H1B2  434  -0.862   1.459   2.976 -2.5060 -0.6860  2.8118
    1PEO   O1B3  435  -1.004   1.305   2.929 -0.2347  0.3286  0.0249
    1PEO   H1B4  436  -1.111   1.389   3.096 -1.3101 -1.1541  1.8545
    1PEO   H1B5  437  -1.052   1.217   3.120 -0.8962 -0.5448  0.8209
    1PEO   C1B6  438  -1.090   1.292   3.049 -0.1467 -0.3402  0.6251
    1PEO   C1B7  439  -1.232   1.234   3.018  0.0348  0.1959  0.7177
    1PEO   H1B8  440  -1.203   1.174   2.930  1.7295  0.0845  1.3257
    1PEO   H1B9  441  -1.276   1.175   3.100 -1.3357  0.0663 -0.0762
    1PEO   O1BA  442  -1.316   1.343   2.979  0.9853  0.1968  0.0803
    1PEO   H1BB  443  -1.468   1.193   2.950 -2.1745  0.7520  0.5751
    1PEO   H1BC  444  -1.507   1.356   2.888 -0.8616  0.6343  0.1989
    1PEO   C1BD  445  -1.462   1.300   2.971 -0.9885  0.7420  0.3406
    1PEO   C1BE  446  -1.546   1.345   3.093  0.2225 -0.6781  0.1586
    1PEO   H1BF  447  -1.545   1.454   3.112  0.2252 -0.9532  1.9718
    1PEO   H1C0  448  -1.647   1.306   3.075  0.4489 -1.0300 -0.3690
    1PEO   O1C1  449  -1.493   1.283   3.216  0.5055  0.2161 -0.1721
    1PEO   H1C2  450  -1.459   1.465   3.301 -1.4678  0.1907 -2.1497
    1PEO   H1C3  451  -1.314   1.380   3.235 -1.3389 -1.3157 -2.0352
    1PEO   C1C4  452  -1.407   1.368   3.293 -0.2050  0.5711  0.3274
    1PEO   C1C5  453  -1.382   1.320   3.434  0.5614 -0.5109 -0.8022
    1PEO   H1C6  454  -1.288   1.367   3.469  0.5603 -2.7993  2.7780
    1PEO   H1C7  455  -1.456   1.357   3.507  2.4382  0.0208  0.9240
    1PEO   O1C8  456  -1.364   1.180   3.429 -0.3216 -0.3192  0.3046
    1PEO   H1C9  457  -1.473   1.165   3.599  0.9626  0.5258  0.5771
    1PEO   H1CA  458  -1.308   1.142   3.625 -0.9759 -2.0807  1.7931
    1PEO   C1CB  459  -1.386   1.117   3.552  0.2051 -0.0171 -0.3023
    1PEO   C1CC  460  -1.408   0.969   3.543 -0.0657  0.2526 -0.1021
    1PEO   H1CD  461  -1.490   0.951   3.614  0.0564  1.9662  0.5136
    1PEO   H1CE  462  -1.431   0.943   3.439 -0.5890 -0.9776  0.2986
    1PEO   O1CF  463  -1.292   0.894   3.586  0.4584  0.1469 -0.5954
    1PEO   H1D0  464  -1.146   0.975   3.461  2.5532  1.1480  3.2692
    1PEO   H1D1  465  -1.213   0.830   3.403  0.8141 -0.2063 -0.6062
    1PEO   C1D2  466  -1.183   0.877   3.497  0.4550  0.2415 -0.7122
    1PEO   C1D3  467  -1.058   0.812   3.554  0.1780 -0.7954  0.0557
    1PEO   H1D4  468  -1.002   0.769   3.470 -1.2887 -2.8056  0.0205
    1PEO   H1D5  469  -0.986   0.873   3.610 -0.8204  2.8205 -2.2883
    1PEO   O1D6  470  -1.094   0.701   3.631 -0.3963  0.4580  0.1924
    1PEO   H1D7  471  -1.004   0.778   3.813  1.4409 -0.0493 -0.2482
    1PEO   H1D8  472  -0.904   0.701   3.717  0.2936  0.6419 -1.7727
    1PEO   C1D9  473  -1.009   0.690   3.747  0.8692 -0.2550  0.0703
    1PEO   C1DA  474  -1.033   0.554   3.825  0.8862 -0.4865  0.2047
    1PEO   H1DB  475  -0.959   0.552   3.906  2.2616 -1.5473 -1.0326
    1PEO   H1DC  476  -1.134   0.561   3.869  0.7428 -1.4771  0.0545
    1PEO   O1DD  477  -1.030   0.446   3.737 -0.4778  0.3427  0.6901
    1PEO   H1DE  478  -0.816   0.439   3.768  1.8411 -1.9506 -1.4286
    1PEO   H1DF  479  -0.881   0.342   3.635  2.3222  0.9139 -0.1090
    1PEO   C1E0  480  -0.900   0.375   3.738  0.0718 -0.3775 -0.0587
    1PEO   C1E1  481  -0.909   0.253   3.839  0.0671 -0.7883  0.6928
    1PEO   H1E2  482  -1.011   0.212   3.831  0.0862 -0.6963 -0.2284
    1PEO   H1E3  483  -0.839   0.180   3.795  2.2351  1.1770  0.6464
    1PEO   O1E4  484  -0.883   0.300   3.970 -0.1989  0.0635 -0.7800
    1PEO   H1E5  485  -0.835   0.111   4.042  1.1112  2.0749 -0.0366
    1PEO   H1E6  486  -1.007   0.148   4.048  0.3607 -1.0493 -1.9592
    1PEO   C1E7  487  -0.907   0.192   4.061 -0.5618  0.5831  0.2415
    1PEO   C1E8  488  -0.890   0.245   4.202  0.6897 -0.3448 -0.4444
    1PEO   H1E9  489  -0.910   0.353   4.203  0.5774 -0.3375 -1.7688
    1PEO   H1EA  490  -0.960   0.196   4.270 -0.0992  0.7910 -0.4067
    1PEO   O1EB  491  -0.753   0.238   4.242 -1.1559 -0.0041  0.3769
    1PEO   H1EC  492  -0.748   0.236   4.462  3.9724  2.2949  4.3100
    1PEO   H1ED  493  -0.724   0.397   4.399  0.9262 -0.3844  0.2748
    1PEO   C1EE  494  -0.710   0.290   4.374  0.1070 -0.5429  0.4515
    1PEO   C1EF  495  -0.556   0.278   4.393 -0.1207  0.6170  0.4640
    1PEO   H1F0  496  -0.536   0.291   4.501 -0.6386  2.8231  0.3476
    1PEO   H1F1  497  -0.510   0.186   4.355  3.3295  2.6924 -0.8657
    1PEO   O1F2  498  -0.506   0.400   4.342 -0.4873  0.2818  0.4573
    1PEO   H1F3  499  -0.305   0.349   4.318  1.8442  2.0482  0.4349
    1PEO   H1F4  500  -0.357   0.394   4.485  1.9797 -0.5591  0.3244
    1PEO   C1F5  501  -0.369   0.416   4.378 -0.1475  0.0972  0.6566
    1PEO   C1F6  502  -0.329   0.565   4.357  0.5389 -0.6239 -0.0789
    1PEO   H1F7  503  -0.220   0.578   4.373  0.5610 -1.2677  0.3499
    1PEO   H1F8  504  -0.374   0.611   4.268 -0.9157  1.0082  1.4283
    1PEO   O1F9  505  -0.384   0.646   4.458  0.3309 -0.0528  0.1873
    1PEO   H1FA  506  -0.291   0.813   4.385 -1.0247 -0.2645 -0.2454
    1PEO   H1FB  507  -0.340   0.840   4.546  0.2551  0.6606 -0.1187
    1PEO   C1FC  508  -0.374   0.792   4.453 -0.7590  0.4933  0.3256
    1PEO   C1FD  509  -0.497   0.878   4.403  0.1178 -0.0786  0.3508
    1PEO   H1FE  510  -0.464   0.978   4.370 -0.9227  0.2125  0.1656
    1PEO   H1FF  511  -0.545   0.822   4.321  1.1671 -1.0653  0.3762
    1PEO   O200  512  -0.585   0.890   4.513 -0.2095  0.0600 -0.0623
    1PEO   H201  513  -0.588   0.696   4.593  1.6005  1.4277  0.7250
    1PEO   H202  514  -0.708   0.729   4.474 -0.9505 -2.3273  1.8214
    1PEO   C203  515  -0.655   0.776   4.558  0.0397 -0.1150  0.0430
    1PEO   C204  516  -0.740   0.810   4.686 -0.2354 -0.4810  0.3367
    1PEO   H205  517  -0.834   0.861   4.660  0.4805  0.3192 -0.7945
    1PEO   H206  518  -0.761   0.713   4.734  1.0947 -2.6363 -3.0113
    1PEO   O207  519  -0.664   0.893   4.769 -0.1308  0.2223 -0.1945
    1PEO   H208  520  -0.764   0.848   4.935  0.1839 -0.3475  1.0287
    1PEO   H209  521  -0.795   1.002   4.859  0.9088  0.2939 -1.3981
    1PEO   C20A  522  -0.714   0.934   4.887 -0.2436 -0.3466  0.5823
    1PEO   C20B  523  -0.606   1.011   4.966 -0.2361  0.9373  0.4334
    1PEO   H20C  524  -0.651   1.050   5.058  2.4665  0.6797  1.9519
    1PEO   H20D  525  -0.528   0.935   4.982 -0.3031  0.9740  0.9410
    1PEO   O20E  526  -0.547   1.118   4.895 -0.0574  0.0223 -0.1540
    1PEO   H20F  527  -0.603   1.315   4.854  0.3923 -0.6939  2.5978
    1PEO   H210  528  -0.745   1.203   4.870 -0.0487 -0.8785 -0.0113
    1PEO   C211  529  -0.641   1.213   4.836 -0.1836 -0.0924 -0.2139
    1PEO   C212  530  -0.641   1.194   4.680 -0.0536 -0.1112 -0.4235
    1PEO   H213  531  -0.613   1.092   4.648  1.2751  0.5644 -1.5401
    1PEO   H214  532  -0.740   1.218   4.640  0.2836  0.5911 -0.8732
    1PEO   O215  533  -0.552   1.300   4.627  0.0958 -0.0879  0.2403
    1PEO   H216  534  -0.453   1.161   4.516 -0.1504  0.4954  2.4576
    1PEO   H217  535  -0.417   1.329   4.462  0.0394 -0.5425 -1.8507
    1PEO   C218  536  -0.495   1.260   4.497  0.0499  0.1031 -0.4989
    1PEO   C219  537  -0.595   1.262   4.381  0.2080  0.2126  0.3790
    1PEO   H21A  538  -0.547   1.233   4.286  1.5173 -0.2578  1.1647
    1PEO   H21B  539  -0.685   1.205   4.408 -1.2507  1.3474 -1.7681
    1PEO   O21C  540  -0.634   1.398   4.378  0.1604 -0.4123  0.1598
    1PEO   H21D  541  -0.772   1.527   4.320  0.6483 -0.7000  2.3706
    1PEO   H21E  542  -0.800   1.362   4.253  0.3694 -0.6147  0.6590
    1PEO   C21F  543  -0.724   1.438   4.278 -0.0290  0.1946 -0.5396
    1PEO   C220  544  -0.647   1.483   4.150  0.2100 -0.4793 -1.0718
    1PEO   H221  545  -0.726   1.526   4.086 -2.4456 -0.0807  2.2263
    1PEO   H222  546  -0.580   1.561   4.188 -1.7324  1.3239 -1.1705
    1PEO   O223  547  -0.579   1.371   4.080 -0.1558 -0.0255  0.0135
    1PEO   H224  548  -0.436   1.343   3.923  0.7629  0.7367  0.3046
    1PEO   H225  549  -0.450   1.505   3.984 -0.1809 -0.0155 -0.5015
    1PEO   C226  550  -0.509   1.415   3.963 -0.1846 -0.2233  0.3506
    1PEO   C227  551  -0.611   1.435   3.846  0.1620  0.0549  0.0085
    1PEO   H228  552  -0.563   1.420   3.748  0.2353  0.5161 -0.0310
    1PEO   H229  553  -0.685   1.354   3.844  0.4621 -0.2566  0.9823
    1PEO   O22A  554  -0.677   1.563   3.848  0.6304 -0.0495  0.3190
    1PEO   H22B  555  -0.835   1.478   3.743  2.1206 -2.9359  1.7911
    1PEO   H22C  556  -0.714   1.574   3.650  1.2137 -0.4835  2.3596
    1PEO   C22D  557  -0.770   1.566   3.744 -0.3238 -1.0160  1.4344
    1PEO   C22E  558  -0.859   1.685   3.746 -0.5031 -0.1082  0.0594
    1PEO   H22F  559  -0.796   1.773   3.763 -0.7856  0.7908 -2.9040
    1PEO   H230  560  -0.905   1.708   3.649 -0.3997 -0.5777 -0.1074
    1PEO   O231  561  -0.959   1.669   3.841  0.1160  0.3919 -0.2348
    1PEO   H232  562  -0.914   1.840   3.943 -0.9064  0.6473  2.2024
    1PEO   H233  563  -0.837   1.719   4.013  1.4430  3.1885 -0.8131
    1PEO   C234  564  -0.936   1.735   3.967  0.6739 -0.4726 -0.7209
    1PEO   C235  565  -1.054   1.723   4.071 -0.1341  0.2657 -0.0560
    1PEO   H236  566  -1.038   1.806   4.142 -0.4385  1.4962 -1.3848
    1PEO   H237  567  -1.154   1.733   4.027  0.5339  1.1419 -1.4427
    1PEO   O238  568  -1.044   1.600   4.141  0.2325 -0.4319 -0.1163
    1PEO   H239  569  -1.257   1.594   4.149 -0.1503 -2.2629 -0.8618
    1PEO   H23A  570  -1.183   1.616   4.298 -0.8030 -0.1056 -0.5157
    1PEO   C23B  571  -1.167   1.561   4.203  0.1890 -0.4026 -0.1951
    1PEO   C23C  572  -1.176   1.408   4.215  0.1232 -0.1509 -0.1714
    1PEO   H23D  573  -1.276   1.382   4.255 -0.2194  1.2112 -0.1175
    1PEO   H23E  574  -1.163   1.369   4.113 -0.8499 -0.2366 -0.2767
    1PEO   O23F  575  -1.087   1.350   4.304 -1.1587 -0.1515 -0.0244
    1PEO   H240  576  -1.048   1.184   4.187  1.9382 -1.1186  1.0562
    1PEO   H241  577  -1.176   1.149   4.304  0.2615 -0.4696  0.9375
    1PEO   C242  578  -1.083   1.206   4.289 -0.1854  0.0626  0.1229
    1PEO   C243  579  -0.975   1.161   4.387 -0.1822 -0.8081  0.2093
    1PEO   H244  580  -0.904   1.096   4.334  1.1617  0.3528  0.5055
    1PEO   H245  581  -0.911   1.246   4.415 -0.1530 -0.9875  0.6933
    1PEO   O246  582  -1.021   1.091   4.507  0.1202  0.3324 -0.4843
    1PEO   H247  583  -1.177   1.218   4.578 -0.9849 -0.0995  0.6899
    1PEO   H248  584  -1.012   1.263   4.622  0.1661 -1.2126  2.2317
    1PEO   C249  585  -1.078   1.176   4.603 -1.0566 -0.0643  1.0340
    1PEO   C24A  586  -1.094   1.096   4.731  0.6840 -0.0542  0.1247
    1PEO   H24B  587  -1.199   1.098   4.763  0.8799 -1.4079  0.9446
    1PEO   H24C  588  -1.060   0.995   4.704 -1.3455 -0.4859 -1.0269
    1PEO   O24D  589  -1.014   1.158   4.832 -0.2579 -0.0071  0.4243
    1PEO   H24E  590  -1.021   1.005   4.959  0.3423 -0.3992 -1.5207
    1PEO   H24F  591  -1.155   1.124   4.982  0.3537  1.2604  0.2417
    1PEO   C250  592  -1.048   1.112   4.962  0.0159 -0.4976 -0.6580
    1PEO   C251  593  -0.961   1.186   5.064  0.7151 -0.7174 -0.0881
    1PEO   H252  594  -0.966   1.127   5.157  2.2869 -0.7465 -0.0067
    1PEO   H253  595  -0.854   1.195   5.043  1.0547 -2.8005  0.4692
    1PEO   O254  596  -1.024   1.314   5.089 -0.1898  0.2997  0.0128
    1PEO   H255  597  -1.020   1.387   4.900 -0.7208 -0.6546 -0.1446
    1PEO   H256  598  -0.881   1.434   4.998  0.2806 -2.5199  1.9258
    1PEO   C257  599  -0.990   1.418   5.001 -0.1315 -0.7698 -0.2790
    1PEO   C258  600  -1.071   1.550   5.043  0.1655  0.6606 -0.1067
    1PEO   H259  601  -1.081   1.620   4.959  0.5121 -0.6121 -1.2456
    1PEO   H25A  602  -1.169   1.501   5.051 -0.0080  1.1578  0.9479
    1PEO   O25B  603  -1.025   1.604   5.162  0.0349  0.0046  0.0677
    1PEO   H25C  604  -0.917   1.738   5.049 -0.2990 -0.5438  0.2285
    1PEO   H25D  605  -0.812   1.637   5.154  1.4628  2.2389 -0.9416
    1PEO   C25E  606  -0.909   1.687   5.146 -0.0691 -0.3323  0.3216
    1PEO   C25F  607  -0.935   1.806   5.250  0.0316 -0.0182 -0.0851
    1PEO   H260  608  -0.954   1.773   5.353 -1.1689  3.0934  0.8117
    1PEO   H261  609  -0.835   1.852   5.244  1.3998 -2.7456  0.3146
    1PEO   O262  610  -1.038   1.885   5.192  0.3478 -0.0764 -0.5464
    1PEO   H263  611  -1.051   2.094   5.193 -1.2277  0.5423  0.2104
    1PEO   H264  612  -0.968   2.010   5.341  0.5318  2.1595 -0.1121
    1PEO   C265  613  -1.048   2.012   5.266  0.2166  0.4992  0.1359
    1PEO   C266  614  -1.183   2.018   5.353 -0.0705  0.6355  0.2840
    1PEO   H267  615  -1.199   1.922   5.403 -2.4772  1.3037  0.9230
    1PEO   H268  616  -1.174   2.093   5.433 -1.8645  0.0219  1.1279
    1PEO   O269  617  -1.290   2.051   5.265 -0.4897  0.7288 -0.7556
    1PEO   H26A  618  -1.480   2.115   5.288  0.6584  0.4211 -2.1533
    1PEO   H26B  619  -1.425   2.028   5.433  2.7888  0.5483  0.0037
    1PEO   C26C  620  -1.419   2.031   5.323 -0.3264  0.4232 -0.2810
    1PEO   C26D  621  -1.489   1.916   5.258 -0.7118  0.3585  0.4441
    1PEO   H26E  622  -1.578   1.902   5.320 -0.7954 -0.0080  0.2471
    1PEO   H26F  623  -1.508   1.928   5.150  0.7779  1.1802  0.2478
    1PEO   O270  624  -1.417   1.792   5.280  0.2431  0.3784 -0.0852
    1PEO   H271  625  -1.245   1.701   5.195  0.6143  2.6797  2.9571
    1PEO   H272  626  -1.311   1.836   5.103 -1.9214 -0.4682 -0.3581
    1PEO   C273  627  -1.339   1.752   5.168 -0.6302 -0.7396 -0.1121
    1PEO   C274  628  -1.428   1.656   5.086  0.0901 -0.6344 -0.3392
    1PEO   H275  629  -1.362   1.574   5.053  2.3681  0.3965  1.4220
    1PEO   H276  630  -1.508   1.616   5.149 -1.1490 -0.1998 -1.5760
    1PEO   O277  631  -1.499   1.738   5.003 -0.3171 -0.2841  0.3320
    1PEO   H278  632  -1.640   1.737   4.858 -0.1048  1.0802  2.3654
    1PEO   H279  633  -1.615   1.576   4.927  0.0176 -0.0327  0.5792
    1PEO   C27A  634  -1.563   1.666   4.891 -0.1696 -0.1502  0.0160
    1PEO   C27B  635  -1.479   1.622   4.770 -0.6454  0.5694  0.5307
    1PEO   H27C  636  -1.554   1.562   4.715 -0.3587 -0.7602  1.5519
    1PEO   H27D  637  -1.444   1.708   4.711  1.7495 -0.6327  0.1075
    1PEO   O27E  638  -1.377   1.524   4.806  0.9730 -0.0562 -0.0450
    1PEO   H27F  639  -1.423   1.401   4.652 -0.1077 -0.1444 -0.3613
    1PEO   H280  640  -1.268   1.352   4.737 -0.0989 -0.3245 -0.6820
    1PEO   C281  641  -1.331   1.435   4.700 -0.1009 -0.1760 -0.3517
    1PEO   C282  642  -1.236   1.506   4.599  0.4099  0.2613 -0.2507
    1PEO   H283  643  -1.208   1.448   4.510 -0.4263  0.4869 -0.6695
    1PEO   H284  644  -1.282   1.604   4.579 -2.4853 -0.6699  1.1689
    1PEO   O285  645  -1.112   1.524   4.668  0.7627 -0.9077  0.5418
    1PEO   H286  646  -1.012   1.652   4.537  1.9423  0.0345  0.3503
    1PEO   H287  647  -0.997   1.487   4.484  1.0948 -2.0497  0.9526
    1PEO   C288  648  -1.001   1.550   4.575  0.3820 -0.3653 -0.1965
    1PEO   C289  649  -0.862   1.526   4.643  1.0634  0.6128  0.3681
    1PEO   H28A  650  -0.864   1.428   4.694 -0.1846  1.0626  1.2268
    1PEO   H28B  651  -0.781   1.525   4.568 -0.9377 -1.5601 -1.9924
    1PEO   O28C  652  -0.842   1.630   4.738  0.4846 -0.6339 -0.3888
    1PEO   H28D  653  -0.626   1.579   4.753 -1.1140 -0.5068 -0.7506
    1PEO   H28E  654  -0.724   1.528   4.884 -3.0523 -1.3770 -1.1722
    1PEO   C28F  655  -0.717   1.607   4.808  0.1060  0.5015  0.8603
    1PEO   C290  656  -0.679   1.738   4.876 -0.0865 -0.0651  0.0833
    1PEO   H291  657  -0.607   1.794   4.814  1.4013 -0.7376  1.1354
    1PEO   H292  658  -0.765   1.806   4.883  0.1117  0.4954 -2.1849
    1PEO   O293  659  -0.627   1.705   5.005 -0.3946 -0.6249 -0.1454
    1PEO   H294  660  -0.669   1.904   5.067  1.3920  1.6372 -1.4750
    1PEO   H295  661  -0.496   1.865   5.026  1.1155 -2.3286  0.6021
    1PEO   C296  662  -0.589   1.830   5.073 -0.2155 -0.1048 -0.2289
    1PEO   C297  663  -0.543   1.804   5.224  0.1791 -0.1030  0.1514
    1PEO   H298  664  -0.443   1.757   5.225 -0.2864 -1.2381 -1.7397
    1PEO   H299  665  -0.510   1.899   5.270  2.9067 -0.9415  0.1381
    1PEO   O29A  666  -0.643   1.744   5.306  0.2055 -0.4596  0.4415
    1PEO   H29B  667  -0.547   1.817   5.485  1.9822 -0.9245  0.2291
    1PEO   H29C  668  -0.509   1.651   5.442 -2.1570 -1.6591 -2.2251
    1PEO   C29D  669  -0.590   1.725   5.443 -0.4039  0.3579 -0.3162
    1PEO   C29E  670  -0.703   1.667   5.536 -0.1676 -0.1842 -0.0794
    1PEO   H29F  671  -0.774   1.605   5.479 -0.4703 -0.3612  0.4873
    1PEO   H2A0  672  -0.667   1.605   5.619 -0.8960 -1.5936 -0.7772
    1PEO   O2A1  673  -0.771   1.785   5.577  1.0522  0.0649  0.1983
    1PEO   H2A2  674  -0.874   1.729   5.745  1.5605  3.6124  0.7983
    1PEO   H2A3  675  -0.949   1.677   5.588 -0.8624  0.1402  1.1480
    1PEO   C2A4  676  -0.897   1.758   5.641  0.3805  0.1608 -0.0293
    1PEO   C2A5  677  -0.993   1.878   5.644  0.4952  0.1729  0.6064
    1PEO   H2A6  678  -1.028   1.899   5.542 -1.3906 -6.5576 -0.6118
    1PEO   H2A7  679  -1.080   1.850   5.705 -0.6132  0.0238 -1.0004
    1PEO   O2A8  680  -0.929   1.991   5.708  0.1458  0.3512  0.5362
    1PEO   H2A9  681  -0.946   2.095   5.528  2.7288 -1.4465 -2.9303
    1PEO   H2AA  682  -0.784   2.028   5.558  0.5646  0.7861 -1.1973
    1PEO   C2AB  683  -0.870   2.077   5.605  0.8515  0.5720 -0.4355
    1PEO   C2AC  684  -0.809   2.210   5.674  0.0965 -0.2783 -0.4962
    1PEO   H2AD  685  -0.775   2.199   5.778  2.2157  0.8699 -1.0027
    1PEO   H2AE  686  -0.714   2.235   5.626 -1.0512  2.4820 -1.5839
    1PEO   O2AF  687  -0.901   2.319   5.664  0.2925  0.2218  0.0086
    1PEO   H2B0  688  -0.905   2.320   5.457 -1.2940 -2.5250  2.4968
    1PEO   H2B1  689  -0.776   2.418   5.539  0.6741 -0.7702  0.0422
    1PEO   C2B2  690  -0.882   2.388   5.540  0.2703  0.5913 -0.2487
    1PEO   C2B3  691  -0.993   2.504   5.525 -0.5528  0.4898 -0.1773
    1PEO   H2B4  692  -0.992   2.567   5.615 -0.6759  0.5802 -0.2392
    1PEO   H2B5  693  -0.967   2.561   5.434 -3.7787 -1.2452 -2.3707
    1PEO   O2B6  694  -1.125   2.451   5.506 -0.4013  0.4609 -0.4172
    1PEO   H2B7  695  -1.067   2.342   5.343  1.9235  2.4542 -1.3990
    1PEO   H2B8  696  -1.135   2.501   5.306 -1.1637  0.0988  0.2316
    1PEO   C2B9  697  -1.147   2.412   5.369 -0.1160 -0.2251 -0.0016
    1PEO   C2BA  698  -1.294   2.363   5.357 -0.0971 -0.2145  0.0118
    1PEO   H2BB  699  -1.322   2.344   5.252 -0.9893  2.8032 -0.4066
    1PEO   H2BC  700  -1.315   2.272   5.414  2.0582 -1.0716 -0.4939
    1PEO   O2BD  701  -1.380   2.457   5.404 -0.1971 -0.3707 -0.3968
    1PEO   H2BE  702  -1.466   2.413   5.411 -1.4814  1.6098 -2.4810
    2PEO   H001  703   4.259   1.508   3.893 -1.2157 -0.2741  0.1853
    2PEO   H002  704   4.261   1.323   3.858  0.9801 -0.9106  0.6656
    2PEO   H003  705   4.362   1.434   3.780 -1.4172  0.1066 -0.8511
    2PEO   C004  706   4.259   1.426   3.819 -0.7547 -0.8494  0.8110
    2PEO   C005  707   4.154   1.420   3.705 -1.0341  0.2873 -0.3506
    2PEO   H006  708   4.165   1.332   3.641 -2.3871  0.6922 -1.1960
    2PEO   H007  709   4.057   1.419   3.757  0.4281  1.4707  2.6351
    2PEO   O008  710   4.177   1.542   3.637  0.3649 -0.1415 -0.3835
    2PEO   H009  711   4.090   1.697   3.529 -2.0104  0.3361 -1.9836
    2PEO   H00A  712   4.022   1.530   3.514 -0.4455  0.6850  0.6828
    2PEO   C00B  713   4.114   1.590   3.522 -0.2909  0.4906  0.3809
    2PEO   C00C  714   4.211   1.555   3.413 -0.5009  0.7851 -0.0400
    2PEO   H00D  715   4.199   1.618   3.324  1.7147 -0.1881 -1.1003
    2PEO   H00E  716   4.315   1.572   3.444  0.2130  0.6026 -2.1373
    2PEO   O00F  717   4.181   1.417   3.369 -0.0953 -0.9604  0.2579
    2PEO   H010  718   4.377   1.365   3.352  0.0996 -0.5854 -0.2936
    2PEO   H011  719   4.309   1.428   3.202  0.4680  1.1637  0.9240
    2PEO   C012  720   4.287   1.364   3.289 -0.0892  0.0198 -0.0456
    2PEO   C013  721   4.253   1.213   3.263  0.0600  0.8501  0.0811
    2PEO   H014  722   4.150   1.182   3.239  0.3699 -1.2505  1.2281
    2PEO   H015  723   4.324   1.173   3.189 -0.3829 -0.9503  0.5775
    2PEO   O016  724   4.275   1.160   3.397  1.0549  0.9451  0.2170
    2PEO   H017  725   4.214   0.970   3.378 -3.8534  0.5043 -1.0819
    2PEO   H018  726   4.082   1.068   3.432 -0.3664 -0.0127  0.0078
    2PEO   C019  727   4.190   1.055   3.445 -0.2430  0.8632 -0.0440
    2PEO   C01A  728   4.222   1.009   3.585 -0.4373 -0.9827  0.2411
    2PEO   H01B  729   4.258   1.096   3.642 -2.1929 -1.4203  2.1495
    2PEO   H01C  730   4.123   0.989   3.629 -2.1059  2.1027 -1.7702
    2PEO   O01D  731   4.314   0.901   3.578 -0.1701  0.3026  0.4580
    2PEO   H01E  732   4.220   0.777   3.730 -1.8527  2.9566 -0.6125
    2PEO   H01F  733   4.343   0.887   3.786 -0.0840 -1.2770 -0.0534
    2PEO   C020  734   4.316   0.822   3.701 -0.1806 -0.3818 -0.7194
    2PEO   C021  735   4.420   0.704   3.694 -0.5158 -0.6005  0.3651
    2PEO   H022  736   4.516   0.736   3.651 -1.5338 -0.6271 -2.1155
    2PEO   H023  737   4.438   0.671   3.797 -0.9757 -0.7145  0.4085
    2PEO   O024  738   4.366   0.596   3.618  0.6743 -0.5049 -0.0983
    2PEO   H025  739   4.493   0.474   3.739  0.0863  0.3228  0.5112
    2PEO   H026  740   4.511   0.459   3.556  0.5417  1.7286  0.6041
    2PEO   C027  741   4.443   0.473   3.641 -0.0205 -0.4919  0.5754
    2PEO   C028  742   4.350   0.356   3.649  0.2971  0.2060 -0.0298
    2PEO   H029  743   4.283   0.343   3.562 -0.6754 -1.2028  0.8792
    2PEO   H02A  744   4.408   0.263   3.639  2.4266  1.3273  1.1645
    2PEO   O02B  745   4.264   0.361   3.769 -0.1641  0.3696  0.7959
    2PEO   H02C  746   4.408   0.368   3.933 -1.1247 -0.0214  1.9556
    2PEO   H02D  747   4.329   0.208   3.898  2.2724  0.4030  0.1242
    2PEO   C02E  748   4.316   0.317   3.901 -0.4253  0.1754 -0.5675
    2PEO   C02F  749   4.206   0.367   3.998  0.5958  0.6361  0.7434
    2PEO   H030  750   4.109   0.365   3.946  2.6128 -1.7775 -3.4548
    2PEO   H031  751   4.201   0.310   4.092 -0.3737 -0.2077  0.2103
    2PEO   O032  752   4.236   0.502   4.037 -0.2115 -0.4312  0.2157
    2PEO   H033  753   4.069   0.578   3.958 -0.3463  1.9454  2.8665
    2PEO   H034  754   4.221   0.614   3.859  2.8899  1.4788  0.2712
    2PEO   C035  755   4.175   0.609   3.958  0.6185 -0.6700 -0.7855
    2PEO   C036  756   4.174   0.746   4.029 -0.0947  0.0990  0.6927
    2PEO   H037  757   4.103   0.806   3.970 -2.4624 -2.9169  0.2281
    2PEO   H038  758   4.142   0.730   4.133 -1.5663 -0.8151  0.1340
    2PEO   O039  759   4.310   0.794   4.030 -1.0330 -0.2222  0.7077
    2PEO   H03A  760   4.290   0.889   4.204 -2.2361 -0.7069 -1.3353
    2PEO   H03B  761   4.291   1.006   4.062 -0.1668  0.0945 -0.4664
    2PEO   C03C  762   4.335   0.915   4.107 -0.8627 -0.3271 -0.6206
    2PEO   C03D  763   4.488   0.934   4.119  0.2203  0.2909  0.2869
    2PEO   H03E  764   4.512   1.022   4.181 -1.4387  0.7708  0.2939
    2PEO   H03F  765   4.542   0.849   4.164  0.1116 -0.6903 -1.3838
    2PEO   O040  766   4.546   0.967   3.988  0.0409  0.0143  0.0895
    2PEO   H041  767   4.742   0.900   4.041  0.9971  0.3303 -0.4520
    2PEO   H042  768   4.722   1.079   4.031 -0.1760 -0.6130  0.9620
    2PEO   C043  769   4.688   0.982   3.991  0.1285 -0.1810 -0.3790
    2PEO   C044  770   4.751   0.974   3.857  0.2136 -0.6022 -0.0767
    2PEO   H045  771   4.860   0.985   3.871  0.2105 -1.3238  0.5893
    2PEO   H046  772   4.720   0.877   3.816  0.1240 -0.0742 -1.2931
    2PEO   O047  773   4.703   1.081   3.774  0.1839 -0.4978 -0.6172
    2PEO   H048  774   4.493   1.079   3.763 -0.0657 -1.7202  0.5766
    2PEO   H049  775   4.576   0.961   3.651 -1.1247  0.2304 -1.7758
    2PEO   C04A  776   4.577   1.062   3.694  0.0202 -0.6533  0.4013
    2PEO   C04B  777   4.568   1.166   3.580  0.5639  0.3740 -0.3455
    2PEO   H04C  778   4.613   1.122   3.490 -0.8875  0.8667 -1.3260
    2PEO   H04D  779   4.462   1.188   3.562  0.2291 -0.3243  0.6841
    2PEO   O04E  780   4.618   1.290   3.625  0.4982 -0.3638 -0.5249
    2PEO   H04F  781   4.508   1.411   3.504 -2.2038 -2.1771  2.3958
    2PEO   H050  782   4.682   1.379   3.453 -0.3980  1.5487  0.3882
    2PEO   C051  783   4.613   1.401   3.535 -1.2964 -0.3585  0.1900
    2PEO   C052  784   4.660   1.526   3.604  0.2541 -0.0951 -0.0384
    2PEO   H053  785   4.743   1.514   3.674 -1.6705 -2.8888  1.9890
    2PEO   H054  786   4.690   1.584   3.515  1.4936 -2.4148 -1.2471
    2PEO   O055  787   4.536   1.577   3.663  0.2847 -0.5746 -0.2310
    2PEO   H056  788   4.600   1.773   3.647 -0.0917 -0.8710 -1.0314
    2PEO   H057  789   4.614   1.685   3.811  0.8497 -1.1208 -0.1830
    2PEO   C058  790   4.555   1.705   3.721  0.7426 -0.2786  0.0613
    2PEO   C059  791   4.417   1.766   3.768  0.1493  0.2271 -0.2818
    2PEO   H05A  792   4.336   1.719   3.709  1.5417 -1.8602 -0.6131
    2PEO   H05B  793   4.391   1.752   3.874  0.4563  1.5995 -0.0047
    2PEO   O05C  794   4.429   1.904   3.737 -0.1734  0.1971 -0.5016
    2PEO   H05D  795   4.345   2.095   3.790  2.8238 -1.2230  2.3737
    2PEO   H05E  796   4.282   1.952   3.868  0.1388 -0.6397  0.1035
    2PEO   C05F  797   4.319   1.990   3.771  0.7900 -0.4471  0.4206
    2PEO   C060  798   4.206   1.972   3.672 -0.6601  0.5105 -0.9000
    2PEO   H061  799   4.199   1.864   3.654 -0.5706 -0.0809  2.1603
    2PEO   H062  800   4.109   2.003   3.713 -1.1009 -1.6798 -0.1338
    2PEO   O063  801   4.237   2.046   3.549  0.4233  0.2950  0.1370
    2PEO   H064  802   4.285   1.872   3.454  0.4875 -0.0104  1.7969
    2PEO   H065  803   4.415   1.973   3.443 -0.6969 -1.0821  1.8655
    2PEO   C066  804   4.305   1.979   3.439 -0.6105  0.0247  0.1767
    2PEO   C067  805   4.238   2.044   3.313  0.1682  0.6974 -0.1982
    2PEO   H068  806   4.270   2.149   3.316 -0.9922  1.0575  0.0856
    2PEO   H069  807   4.275   1.995   3.221  0.8767 -2.4392  1.6048
    2PEO   O06A  808   4.095   2.019   3.330  0.5320 -1.0419  0.4167
    2PEO   H06B  809   4.116   1.813   3.318  0.7744  1.6460  1.9747
    2PEO   H06C  810   4.052   1.891   3.165  0.9661  0.5436  0.8644
    2PEO   C06D  811   4.051   1.892   3.275 -0.0020  0.4511  0.8703
    2PEO   C06E  812   3.900   1.861   3.317 -0.2575 -0.0433 -0.4189
    2PEO   H06F  813   3.832   1.944   3.293 -0.2629  0.0215 -0.1856
    2PEO   H070  814   3.869   1.772   3.260 -0.2176  0.5407 -1.3675
    2PEO   O071  815   3.906   1.834   3.459 -0.3708  0.4468  0.5895
    2PEO   H072  816   3.713   1.743   3.492  0.4012 -1.2850  0.7758
    2PEO   H073  817   3.735   1.916   3.555  0.3412 -0.9528 -0.0553
    2PEO   C074  818   3.781   1.819   3.533  0.5977 -0.7365 -0.4937
    2PEO   C075  819   3.823   1.758   3.673 -0.1575  0.4236 -0.0038
    2PEO   H076  820   3.737   1.739   3.739 -0.2708 -0.4292 -0.3825
    2PEO   H077  821   3.878   1.665   3.657  2.5919  2.2313 -2.0344
    2PEO   O078  822   3.910   1.851   3.737  0.6598  1.1130 -0.2793
    2PEO   H079  823   4.075   1.868   3.872 -2.8661  1.3287  1.4940
    2PEO   H07A  824   4.088   1.725   3.769 -0.8233 -2.1709  3.3140
    2PEO   C07B  825   4.016   1.792   3.819 -0.7584  0.6470  0.0082
    2PEO   C07C  826   3.966   1.684   3.925 -0.2897 -0.1016  0.1830
    2PEO   H07D  827   3.877   1.625   3.897  0.0174  0.8431 -3.2697
    2PEO   H07E  828   4.052   1.619   3.948 -0.6751 -0.1681  1.5325
    2PEO   O07F  829   3.945   1.761   4.049  0.2121  0.5823  0.0643
    2PEO   H080  830   3.982   1.604   4.183  1.0732 -0.2979 -1.6015
    2PEO   H081  831   3.817   1.621   4.149 -0.2640  0.2709 -0.1567
    2PEO   C082  832   3.907   1.682   4.162  0.2739 -0.5592  0.0604
    2PEO   C083  833   3.892   1.779   4.291 -0.0158 -0.1267  0.6088
    2PEO   H084  834   3.923   1.727   4.382 -2.1012 -1.4138  0.6346
    2PEO   H085  835   3.955   1.869   4.293 -1.8570  1.2246  0.8690
    2PEO   O086  836   3.754   1.822   4.284  0.1322  0.3063  0.1320
    2PEO   H087  837   3.768   2.005   4.381 -1.6983  1.9879  2.7509
    2PEO   H088  838   3.766   1.875   4.497 -1.5705 -1.1279  0.2486
    2PEO   C089  839   3.724   1.906   4.400  0.4600  0.2537 -0.2627
    2PEO   C08A  840   3.572   1.927   4.417  0.5200  0.3716  0.5508
    2PEO   H08B  841   3.548   2.022   4.468  0.8061 -0.2625  1.9105
    2PEO   H08C  842   3.529   1.923   4.316  3.4973 -2.0120 -0.7712
    2PEO   O08D  843   3.515   1.824   4.497  0.7614  0.1756 -0.1790
    2PEO   H08E  844   3.390   1.723   4.368 -0.6599 -0.4147  0.1967
    2PEO   H08F  845   3.322   1.871   4.435 -2.2399 -1.5208 -0.7025
    2PEO   C090  846   3.383   1.783   4.459 -0.3910 -0.0997  0.0105
    2PEO   C091  847   3.318   1.720   4.580 -0.1241  0.3020  0.1416
    2PEO   H092  848   3.354   1.764   4.675  0.5045  2.9401 -1.2442
    2PEO   H093  849   3.212   1.741   4.564 -0.3793 -1.7543 -1.2140
    2PEO   O094  850   3.343   1.577   4.590  0.4007 -0.4542 -0.5859
    2PEO   H095  851   3.346   1.538   4.803 -0.7465  0.0453  0.0755
    2PEO   H096  852   3.353   1.398   4.689  1.4710  0.1376 -2.9887
    2PEO   C097  853   3.308   1.496   4.708  0.0897 -0.9965  0.1812
    2PEO   C098  854   3.155   1.473   4.722 -0.2679 -0.0150 -0.5278
    2PEO   H099  855   3.121   1.427   4.628 -0.5015 -0.4908 -0.2143
    2PEO   H09A  856   3.136   1.410   4.810  1.8292  1.0207  0.7540
    2PEO   O09B  857   3.097   1.600   4.745 -0.5656 -0.1373 -0.9832
    2PEO   H09C  858   2.942   1.598   4.871  2.7877  4.1842  0.8338
    2PEO   H09D  859   2.898   1.553   4.701  1.1718 -0.3035 -2.0008
    2PEO   C09E  860   2.959   1.619   4.764  0.2514 -0.5566 -0.8092
    2PEO   C09F  861   2.916   1.767   4.754 -0.5757 -0.0896  0.1176
    2PEO   H0A0  862   2.813   1.782   4.790 -1.1117 -0.6467 -1.1454
    2PEO   H0A1  863   2.985   1.821   4.821  0.9475 -2.0068  0.1860
    2PEO   O0A2  864   2.940   1.798   4.616  0.1597 -0.0192  0.2981
    2PEO   H0A3  865   2.986   1.996   4.645 -2.0684  1.7174 -0.8713
    2PEO   H0A4  866   2.810   1.954   4.616  0.2178 -0.7399  3.7573
    2PEO   C0A5  867   2.915   1.938   4.585 -0.8133 -0.4470 -0.3863
    2PEO   C0A6  868   2.943   1.957   4.432  0.6926 -0.7478  0.2500
    2PEO   H0A7  869   2.913   1.862   4.385  0.2809  0.0334 -1.1569
    2PEO   H0A8  870   2.875   2.040   4.405 -1.5754 -2.1435  1.3736
    2PEO   O0A9  871   3.082   1.982   4.418 -0.9202  0.3966 -0.3917
    2PEO   H0AA  872   3.042   2.001   4.208  2.0135  2.5084 -3.0884
    2PEO   H0AB  873   3.208   1.949   4.262  0.3986 -0.5182  1.8843
    2PEO   C0AC  874   3.123   2.016   4.281  0.2844  0.0874 -0.4356
    2PEO   C0AD  875   3.157   2.168   4.283 -0.1766  0.9081  0.5759
    2PEO   H0AE  876   3.142   2.219   4.187  2.2555  1.4144  0.3945
    2PEO   H0AF  877   3.104   2.224   4.362 -0.1698 -0.3306  1.4798
    2PEO   O0B0  878   3.299   2.158   4.313 -0.3117  0.1553 -0.1121
    2PEO   H0B1  879   3.453   2.234   4.425 -0.6125 -1.6804 -0.5198
    2PEO   H0B2  880   3.294   2.286   4.477 -0.2422  1.6518 -0.7817
    2PEO   C0B3  881   3.356   2.272   4.387  0.0350  0.2320 -0.3896
    2PEO   C0B4  882   3.351   2.406   4.306 -0.4963  0.1280  0.2272
    2PEO   H0B5  883   3.283   2.385   4.222 -0.1368 -1.2115  0.2448
    2PEO   H0B6  884   3.314   2.480   4.378 -0.3193 -0.4398  0.9093
    2PEO   O0B7  885   3.478   2.433   4.248 -0.2244 -0.2587 -0.2179
    2PEO   H0B8  886   3.449   2.648   4.222  0.4175 -0.4564  0.7813
    2PEO   H0B9  887   3.412   2.543   4.077  1.8473 -2.3920 -0.7779
    2PEO   C0BA  888   3.478   2.560   4.163  0.1022 -0.1950  0.2289
    2PEO   C0BB  889   3.626   2.564   4.106  0.9516 -0.9217  0.8009
    2PEO   H0BC  890   3.638   2.487   4.028  2.7578  0.0582  0.0512
    2PEO   H0BD  891   3.647   2.659   4.054  2.0945 -2.0930 -0.9615
    2PEO   O0BE  892   3.723   2.538   4.206  0.3277 -0.3176 -0.2321
    2PEO   H0BF  893   3.830   2.384   4.105 -0.9203 -0.1272 -1.2160
    2PEO   H0C0  894   3.921   2.474   4.231  0.9150  1.4548 -0.4620
    2PEO   C0C1  895   3.848   2.483   4.149  0.4899 -0.7206 -0.3711
    2PEO   C0C2  896   3.919   2.568   4.044 -0.5567  0.3387 -0.3207
    2PEO   H0C3  897   4.002   2.500   4.021 -0.4395  0.1715  0.5982
    2PEO   H0C4  898   3.865   2.594   3.951 -0.2169 -0.1270 -0.6516
    2PEO   O0C5  899   3.971   2.683   4.111  0.1519  0.4545 -0.0045
    2PEO   H0C6  900   4.166   2.627   4.140 -3.2183 -0.5656  1.6287
    2PEO   H0C7  901   4.135   2.803   4.131  0.9699  0.5108 -2.5210
    2PEO   C0C8  902   4.108   2.706   4.088 -0.2774  0.1027 -0.9100
    2PEO   C0C9  903   4.144   2.710   3.946  0.8326 -0.6249 -0.4238
    2PEO   H0CA  904   4.250   2.684   3.952  1.5546  2.3378  1.5601
    2PEO   H0CB  905   4.095   2.634   3.882  0.4353 -0.1641 -0.6755
    2PEO   O0CC  906   4.129   2.849   3.904  0.6167  0.6679  0.1038
    2PEO   H0CD  907   3.998   3.007   3.869  0.4948 -0.0879  0.2161
    2PEO   H0CE  908   3.927   2.868   3.951 -0.2204 -3.2215  0.5789
    2PEO   C0CF  909   4.000   2.897   3.872 -0.3234 -0.0784  1.4862
    2PEO   C0D0  910   3.943   2.852   3.734  0.0165  0.0504  0.4509
    2PEO   H0D1  911   3.888   2.939   3.694 -1.2044 -0.0315  1.8223
    2PEO   H0D2  912   4.026   2.838   3.665 -1.2152 -0.0664 -1.0547
    2PEO   O0D3  913   3.865   2.728   3.738 -0.8440 -0.4015 -0.0417
    2PEO   H0D4  914   3.930   2.659   3.548 -0.8687 -0.5824 -0.7854
    2PEO   H0D5  915   3.776   2.756   3.552 -0.9255 -0.4185  1.4709
    2PEO   C0D6  916   3.836   2.678   3.602  0.1196 -0.0619  0.8000
    2PEO   C0D7  917   3.754   2.550   3.614  0.0954  0.0273 -0.3148
    2PEO   H0D8  918   3.754   2.491   3.521  0.2493 -1.3786  0.5438
    2PEO   H0D9  919   3.791   2.482   3.692  1.9822 -1.2765 -2.2313
    2PEO   O0DA  920   3.614   2.588   3.637 -0.1470 -0.1499 -0.1409
    2PEO   H0DB  921   3.639   2.718   3.813  0.2228 -0.4649  0.7497
    2PEO   H0DC  922   3.610   2.547   3.838  0.4857  0.9413  0.8843
    2PEO   C0DD  923   3.580   2.632   3.775 -0.2905  0.1450  0.1417
    2PEO   C0DE  924   3.431   2.657   3.770  0.5376  1.0953 -0.5816
    2PEO   H0DF  925   3.394   2.583   3.697 -0.1982  1.3143 -0.4418
    2PEO   H0E0  926   3.396   2.637   3.873  2.1743 -3.2728 -0.6574
    2PEO   O0E1  927   3.405   2.795   3.735 -0.3500 -0.5470 -0.0597
    2PEO   H0E2  928   3.222   2.740   3.785  0.9084  0.4449  0.4240
    2PEO   H0E3  929   3.230   2.780   3.606 -2.8681  1.0121  0.1035
    2PEO   C0E4  930   3.263   2.806   3.708  0.1256 -0.1078 -0.4924
    2PEO   C0E5  931   3.214   2.954   3.725  0.5775  0.3999 -0.6185
    2PEO   H0E6  932   3.104   2.962   3.726  0.6734  1.9098  0.7861
    2PEO   H0E7  933   3.245   2.980   3.827  1.4680 -3.2578  0.2009
    2PEO   O0E8  934   3.274   3.032   3.624 -1.2537 -0.6790 -0.2590
    2PEO   H0E9  935   3.369   3.189   3.724 -0.6433 -0.3046  1.2992
    2PEO   H0EA  936   3.201   3.228   3.685  1.0334  0.2405  1.7567
    2PEO   C0EB  937   3.290   3.174   3.648  0.3540  0.1539  0.1407
    2PEO   C0EC  938   3.331   3.234   3.512  0.3179 -0.0926 -0.3475
    2PEO   H0ED  939   3.424   3.293   3.514  0.4002 -0.1577 -1.3287
    2PEO   H0EE  940   3.348   3.159   3.433 -1.7582 -1.1159  0.1153
    2PEO   O0EF  941   3.224   3.314   3.479  0.1684 -1.1811  0.1186
    2PEO   H0F0  942   3.297   3.394   3.290  1.1881  2.3359 -0.6300
    2PEO   H0F1  943   3.346   3.480   3.442  0.7036 -3.2044  1.1011
    2PEO   C0F2  944   3.265   3.426   3.390 -0.3022 -0.8526  0.0336
    2PEO   C0F3  945   3.154   3.531   3.374  0.8706 -0.0960 -0.4388
    2PEO   H0F4  946   3.085   3.534   3.460  1.7503 -0.7484  0.3237
    2PEO   H0F5  947   3.202   3.629   3.365  0.4574  0.0325 -1.2495
    2PEO   O0F6  948   3.083   3.502   3.257  0.7754 -0.0306  0.6062
    2PEO   H0F7  949   2.939   3.401   3.355  0.0073  2.3384 -0.1594
    2PEO   H0F8  950   3.061   3.303   3.270  1.5738  0.8543 -5.7186
    2PEO   C0F9  951   2.994   3.389   3.261 -0.4241  0.2906 -0.1952
    2PEO   C0FA  952   2.906   3.386   3.131  0.0737  0.5958  0.3742
    2PEO   H0FB  953   2.976   3.412   3.050  0.6499  1.4379  1.1155
    2PEO   H0FC  954   2.857   3.290   3.111 -1.6954  2.1046 -3.7081
    2PEO   O0FD  955   2.803   3.484   3.151 -0.1710  0.5793 -0.2525
    2PEO   H0FE  956   2.715   3.506   2.952 -0.8862 -1.4436  0.0199
    2PEO   H0FF  957   2.863   3.601   2.992 -0.6594  0.1799 -0.5399
    2PEO   C100  958   2.769   3.559   3.032 -0.6192 -0.2784 -0.9154
    2PEO   C101  959   2.697   3.692   3.072  0.5783  0.1814  0.1039
    2PEO   H102  960   2.767   3.764   3.118 -0.4093  1.6405 -0.5901
    2PEO   H103  961   2.669   3.743   2.978  1.9297  2.2224  0.7417
    2PEO   O104  962   2.576   3.678   3.148  0.2101 -0.2948  0.2462
    2PEO   H105  963   2.453   3.779   3.276  0.6529 -2.4243 -0.7165
    2PEO   H106  964   2.577   3.891   3.203 -0.6033  0.1650  0.6862
    2PEO   C107  965   2.558   3.792   3.246  0.5732 -0.5352 -0.3371
    2PEO   C108  966   2.651   3.764   3.370  0.0723 -0.2842 -0.1845
    2PEO   H109  967   2.745   3.732   3.323  0.6202 -1.3056  1.5184
    2PEO   H10A  968   2.665   3.851   3.436 -1.8685 -0.2219  0.2089
    2PEO   O10B  969   2.610   3.656   3.452  0.1152 -0.3675  0.1883
    2PEO   H10C  970   2.743   3.497   3.403  0.5508 -0.0429 -1.7106
    2PEO   H10D  971   2.596   3.501   3.303  3.2384 -3.6793  0.5638
    2PEO   C10E  972   2.636   3.521   3.404  0.4964 -0.0632  1.1379
    2PEO   C10F  973   2.566   3.411   3.491 -0.1956 -0.5759  0.9532
    2PEO   H110  974   2.585   3.312   3.448  1.4522 -0.4452  1.3013
    2PEO   H111  975   2.614   3.411   3.591  1.7471  0.4490  0.0749
    2PEO   O112  976   2.428   3.436   3.507 -0.4680 -0.3403 -0.1126
    2PEO   H113  977   2.424   3.335   3.700 -2.3723 -0.6510  1.7611
    2PEO   H114  978   2.365   3.246   3.555 -1.5331 -0.8235  1.1631
    2PEO   C115  979   2.368   3.343   3.605  0.0960 -0.3624  0.2492
    2PEO   C116  980   2.223   3.390   3.632 -0.1167 -0.6093 -0.0336
    2PEO   H117  981   2.181   3.325   3.710  0.1371 -0.5947  0.1158
    2PEO   H118  982   2.225   3.492   3.673 -1.3075 -0.6742  0.1958
    2PEO   O119  983   2.162   3.376   3.512  0.5168 -0.5550 -0.4829
    2PEO   H11A  984   1.962   3.414   3.579 -0.2767 -1.3260  0.6886
    2PEO   H11B  985   2.015   3.248   3.574 -0.1191  1.0053  2.3783
    2PEO   C11C  986   2.017   3.342   3.517  0.0720 -0.4136 -0.0931
    2PEO   C11D  987   1.957   3.314   3.374 -0.1631  0.6545  0.3461
    2PEO   H11E  988   2.027   3.358   3.301  1.9058 -2.6287  0.1387
    2PEO   H11F  989   1.952   3.206   3.350 -1.2706  1.0165 -1.2678
    2PEO   O120  990   1.835   3.378   3.363  0.4687  0.1825 -0.6274
    2PEO   H121  991   1.860   3.548   3.249  0.9330 -1.4703  0.3113
    2PEO   H122  992   1.905   3.577   3.417 -0.9285  0.5139  0.2539
    2PEO   C123  993   1.836   3.520   3.353 -0.2978 -0.3802  0.3411
    2PEO   C124  994   1.695   3.577   3.390  0.0239  0.9623  0.2483
    2PEO   H125  995   1.703   3.685   3.369  0.0556  1.1055  0.9828
    2PEO   H126  996   1.624   3.533   3.319  1.3744 -0.8081 -0.1040
    2PEO   O127  997   1.665   3.551   3.534  0.0712 -0.1120 -0.7955
    2PEO   H128  998   1.453   3.605   3.530 -1.5817  1.4180  0.5782
    2PEO   H129  999   1.559   3.729   3.569  0.9171  0.1454 -0.5313
    2PEO   C12A 1000   1.546   3.622   3.587 -0.9379  0.3902 -0.1424
    2PEO   C12B 1001   1.528   3.603   3.748  0.3130  0.4552 -0.0179
    2PEO   H12C 1002   1.426   3.629   3.781 -0.8527  0.9408 -3.5519
    2PEO   H12D 1003   1.538   3.497   3.772  0.5412  0.2116 -1.1193
    2PEO   O12E 1004   1.623   3.694   3.804 -0.9216 -0.4819  0.4511
    2PEO   H12F 1005   1.627   3.688   4.010  4.4204  1.1642 -0.1112
    2PEO   H130 1006   1.496   3.796   3.932 -0.4398 -1.0807 -0.4383
    2PEO   C131 1007   1.600   3.760   3.931 -0.0289  0.0301  0.1039
    2PEO   C132 1008   1.701   3.883   3.953  0.5788 -0.4057 -0.0586
    2PEO   H133 1009   1.680   3.959   3.877 -2.4095 -0.9839  0.0554
    2PEO   H134 1010   1.675   3.938   4.044  0.8138  0.2161 -0.3616
    2PEO   O135 1011   1.829   3.839   3.952  0.5459  1.2165 -0.1465
    2PEO   H136 1012   1.916   4.005   3.866 -0.3074 -0.5907 -0.0578
    2PEO   H137 1013   2.030   3.877   3.895  0.8558  4.2525 -2.2568
    2PEO   C138 1014   1.940   3.923   3.936 -0.5959 -0.2966  0.3886
    2PEO   C139 1015   1.969   3.994   4.072  0.0643 -0.5703 -0.3096
    2PEO   H13A 1016   1.987   3.928   4.158  1.9135  1.1797  0.7196
    2PEO   H13B 1017   2.053   4.059   4.046 -0.9932  1.1229  0.3053
    2PEO   O13C 1018   1.873   4.089   4.111 -0.2291  0.8494 -0.8644
    2PEO   H13D 1019   1.986   4.247   4.186  0.7687  0.8694  3.2011
    2PEO   H13E 1020   1.943   4.116   4.305 -0.7863  0.8729  0.3058
    2PEO   C13F 1021   1.909   4.176   4.220 -0.1778 -0.1705 -0.6915
    2PEO   C140 1022   1.782   4.250   4.252  0.5075 -0.2804  0.0449
    2PEO   H141 1023   1.696   4.186   4.227  0.4841  0.5998 -2.3992
    2PEO   H142 1024   1.766   4.272   4.359 -2.2552 -0.3780 -0.2977
    2PEO   O143 1025   1.774   4.366   4.173 -1.0157 -0.0023  0.3474
    2PEO   H144 1026   1.643   4.493   4.286  0.5224 -1.7642  1.0728
    2PEO   H145 1027   1.568   4.372   4.168  2.0843 -1.3840 -1.8507
    2PEO   C146 1028   1.650   4.442   4.188  0.2562  0.3675 -0.1075
    2PEO   C147 1029   1.648   4.553   4.084 -0.5851 -0.3055  0.5271
    2PEO   H148 1030   1.560   4.618   4.093  1.1707  2.2179  0.7721
    2PEO   H149 1031   1.735   4.621   4.077 -0.5998 -0.2970  0.4253
    2PEO   O14A 1032   1.639   4.486   3.955  0.0266  0.4187  0.4952
    2PEO   H14B 1033   1.438   4.528   3.914  0.2713 -0.1223 -2.7364
    2PEO   H14C 1034   1.453   4.360   3.966  1.4151 -0.3119  1.5076
    2PEO   C14D 1035   1.506   4.442   3.916  0.2095 -0.1890  0.3684
    2PEO   C14E 1036   1.521   4.405   3.776  0.0310 -0.1023  1.0026
    2PEO   H14F 1037   1.427   4.398   3.720  1.5266  3.4771 -2.4103
    2PEO   H150 1038   1.573   4.489   3.728 -1.8831  1.2675  1.2303
    2PEO   O151 1039   1.587   4.274   3.769 -0.5023 -0.2008  0.2092
    2PEO   H152 1040   1.772   4.173   3.751  0.0896 -1.1718  2.0269
    2PEO   H153 1041   1.751   4.267   3.900  1.8607  0.8951 -0.4155
    2PEO   C154 1042   1.732   4.267   3.792 -0.0570 -0.2487 -0.1316
    2PEO   C155 1043   1.807   4.385   3.717 -0.1111 -0.1568  0.1262
    2PEO   H156 1044   1.786   4.480   3.767  0.6776 -0.2450  0.6222
    2PEO   H157 1045   1.911   4.350   3.716  0.0911  0.4058 -0.8991
    2PEO   O158 1046   1.763   4.413   3.579  0.0327  0.1904 -0.6482
    2PEO   H159 1047   1.920   4.543   3.509  0.2073  1.8688 -1.2016
    2PEO   H15A 1048   1.785   4.623   3.585  0.7960 -1.4811  1.7658
    2PEO   C15B 1049   1.812   4.536   3.523  0.3963 -0.1107 -0.4501
    2PEO   C15C 1050   1.764   4.556   3.380 -0.7143  0.0056  0.2048
    2PEO   H15D 1051   1.838   4.616   3.327 -1.9552  0.3990 -1.1634
    2PEO   H15E 1052   1.742   4.458   3.335  0.7315 -0.6871  0.9369
    2PEO   O15F 1053   1.642   4.625   3.382  0.4063 -0.0872  0.2374
    2PEO   H160 1054   1.568   4.535   3.206  2.4714  1.1423 -3.4831
    2PEO   H161 1055   1.631   4.699   3.185 -1.0022  2.1647  1.2074
    2PEO   C162 1056   1.576   4.634   3.254 -0.1083 -0.1063 -0.1113
    2PEO   C163 1057   1.432   4.693   3.272  0.0369 -0.1236 -0.1329
    2PEO   H164 1058   1.439   4.767   3.352  1.2399 -2.3078  1.9045
    2PEO   H165 1059   1.401   4.735   3.175 -1.7380  0.7897  0.7893
    2PEO   O166 1060   1.338   4.584   3.298  0.4131 -0.0457  0.3841
    2PEO   H167 1061   1.347   4.568   3.509 -2.1477 -1.9222  1.1264
    2PEO   H168 1062   1.446   4.448   3.430  0.2605 -1.4461 -0.5227
    2PEO   C169 1063   1.349   4.499   3.423  0.7237 -0.4826 -0.1065
    2PEO   C16A 1064   1.235   4.396   3.435  0.7667  0.5882 -0.8468
    2PEO   H16B 1065   1.234   4.326   3.351 -1.8589  0.6814 -0.9745
    2PEO   H16C 1066   1.248   4.329   3.521 -1.3069 -0.7589 -1.5117
    2PEO   O16D 1067   1.108   4.455   3.458  0.2945 -0.5271 -0.3193
    2PEO   H16E 1068   1.000   4.329   3.573  4.1398 -0.2093  0.2508
    2PEO   H16F 1069   1.021   4.280   3.403 -0.3141  0.6367 -0.0028
    2PEO   C170 1070   0.993   4.364   3.469 -0.5879  0.1544  0.5051
    2PEO   C171 1071   0.858   4.437   3.445 -0.4312  0.9170 -0.3500
    2PEO   H172 1072   0.777   4.362   3.457 -0.7415  1.4885  1.4264
    2PEO   H173 1073   0.837   4.507   3.527 -0.9748 -0.7356  0.9791
    2PEO   O174 1074   0.853   4.483   3.313  0.1534  0.2499 -0.0007
    2PEO   H175 1075   0.661   4.541   3.323 -0.4970 -0.5621 -0.8834
    2PEO   H176 1076   0.745   4.573   3.169  1.5608 -4.5125 -0.6146
    2PEO   C177 1077   0.756   4.574   3.278 -0.3373 -0.1849 -0.2784
    2PEO   C178 1078   0.803   4.711   3.337 -0.3706  0.2463 -0.3776
    2PEO   H179 1079   0.715   4.776   3.333 -3.0614 -3.0502  0.0778
    2PEO   H17A 1080   0.833   4.706   3.443 -0.9035  0.8254 -0.1927
    2PEO   O17B 1081   0.912   4.763   3.257  0.0704 -0.2167 -0.0491
    2PEO   H17C 1082   1.124   4.755   3.203 -0.0950  0.2848  0.4956
    2PEO   H17D 1083   1.065   4.610   3.284 -1.9408 -0.7062 -1.9616
    2PEO   C17E 1084   1.056   4.719   3.282 -0.1876 -0.4623  0.0892
    2PEO   C17F 1085   1.108   4.791   3.406 -0.6096 -0.7981  0.7327
    2PEO   H180 1086   1.029   4.792   3.484 -0.6991  2.9938  0.7910
    2PEO   H181 1087   1.204   4.756   3.446  0.5377  2.3204  0.9752
    2PEO   O182 1088   1.135   4.939   3.371  0.1063  0.2401 -1.1705
    2PEO   H183 1089   1.248   5.005   3.531  1.6914  0.2974 -1.6850
    2PEO   H184 1090   1.076   5.039   3.557 -0.7577  1.8284 -0.1925
    2PEO   C185 1091   1.154   5.033   3.480 -0.1369 -1.3057  0.5520
    2PEO   C186 1092   1.161   5.181   3.439 -0.2980  1.2585 -0.4057
    2PEO   H187 1093   1.133   5.198   3.334 -0.7044  2.6882 -0.0884
    2PEO   H188 1094   1.116   5.249   3.513  2.5128 -0.2391  2.9379
    2PEO   O189 1095   1.297   5.214   3.443 -0.0751 -0.0579  0.2625
    2PEO   H18A 1096   1.273   5.324   3.272 -1.1619  0.3938  0.6678
    2PEO   H18B 1097   1.429   5.343   3.352 -0.6090 -1.7796 -3.2080
    2PEO   C18C 1098   1.321   5.330   3.370 -0.3506 -0.1851  0.3196
    2PEO   C18D 1099   1.276   5.456   3.446  0.2997 -0.4741  0.1850
    2PEO   H18E 1100   1.311   5.546   3.394 -0.7337 -0.5115 -0.5978
    2PEO   H18F 1101   1.167   5.459   3.437  0.3655 -1.5121 -1.5156
    2PEO   O190 1102   1.310   5.447   3.585  0.2314  0.0827 -0.8175
    2PEO   H191 1103   1.462   5.578   3.537 -1.0811 -0.9668 -0.5528
    2PEO   H192 1104   1.517   5.418   3.583  0.1522  0.7293  0.1743
    2PEO   C193 1105   1.445   5.497   3.609  0.0048  0.2731  1.1922
    2PEO   C194 1106   1.464   5.530   3.756 -0.0635  1.0093 -0.1657
    2PEO   H195 1107   1.391   5.474   3.816 -0.7732  0.4798 -1.4932
    2PEO   H196 1108   1.566   5.501   3.785 -0.7472 -0.2202  1.1415
    2PEO   O197 1109   1.465   5.670   3.769  0.4159 -0.3949  0.0625
    2PEO   H198 1110   1.486   5.667   3.974 -0.5824  0.4976  0.8781
    2PEO   H199 1111   1.326   5.679   3.914 -0.9541  1.2775 -2.6401
    2PEO   C19A 1112   1.428   5.716   3.895  0.1983 -0.4548 -0.3188
    2PEO   C19B 1113   1.440   5.868   3.920  0.1987 -0.3180 -0.1463
    2PEO   H19C 1114   1.493   5.883   4.015  0.9673 -0.9593 -0.4597
    2PEO   H19D 1115   1.496   5.914   3.837  1.7783 -2.4151 -0.3264
    2PEO   O19E 1116   1.315   5.925   3.943  0.0456  0.2992 -0.1156
    2PEO   H19F 1117   1.348   6.080   3.801 -2.2295 -0.2964 -1.0155
    2PEO   H1A0 1118   1.366   6.127   3.965 -2.3536  0.3798  1.1291
    2PEO   C1A1 1119   1.307   6.060   3.901 -0.2930 -0.2759 -0.1615
    2PEO   C1A2 1120   1.163   6.104   3.926 -0.1311 -0.3987  0.3959
    2PEO   H1A3 1121   1.122   6.051   4.013 -2.8648 -0.3225 -0.7376
    2PEO   H1A4 1122   1.166   6.210   3.952  2.9499 -0.0550 -0.9495
    2PEO   O1A5 1123   1.085   6.082   3.803  0.0590  0.3940  0.1989
    2PEO   H1A6 1124   1.108   6.133   3.604  1.7997  0.1350  0.5076
    2PEO   H1A7 1125   1.210   6.215   3.696  0.6568 -0.6110 -0.4362
    2PEO   C1A8 1126   1.105   6.183   3.702  0.0640  1.2688 -0.0774
    2PEO   C1A9 1127   0.998   6.289   3.717  0.1416  0.7273  0.1454
    2PEO   H1AA 1128   0.991   6.322   3.613  0.5238  0.0616 -0.1016
    2PEO   H1AB 1129   0.902   6.248   3.751 -0.9725  2.7916 -0.3895
    2PEO   O1AC 1130   1.055   6.384   3.809  0.0482  0.5498 -0.8756
    2PEO   H1AD 1131   0.874   6.491   3.840 -1.1402  1.6996 -0.8522
    2PEO   H1AE 1132   0.953   6.520   3.685  1.2776  0.7014 -0.3631
    2PEO   C1AF 1133   0.972   6.504   3.792 -0.5022 -0.1269 -0.1422
    2PEO   C1B0 1134   1.050   6.617   3.861  0.0140 -0.0258 -0.1094
    2PEO   H1B1 1135   0.991   6.709   3.854  1.1490  0.8201  1.0505
    2PEO   H1B2 1136   1.060   6.595   3.968 -1.8604  1.9330  0.5223
    2PEO   O1B3 1137   1.179   6.622   3.792 -0.1514 -0.5727  0.1223
    2PEO   H1B4 1138   1.177   6.525   3.603 -0.0688  0.5382 -0.6494
    2PEO   H1B5 1139   1.311   6.617   3.627  0.0562 -0.7405 -1.6847
    2PEO   C1B6 1140   1.204   6.620   3.650  0.3453  0.3053 -0.4088
    2PEO   C1B7 1141   1.145   6.746   3.578 -0.1430  0.2245  0.2405
    2PEO   H1B8 1142   1.192   6.839   3.613  0.0695  0.1689  0.1033
    2PEO   H1B9 1143   1.181   6.731   3.475  2.0890 -1.7250  1.2002
    2PEO   O1BA 1144   1.001   6.744   3.599 -0.3454  0.4020 -0.0730
    2PEO   H1BB 1145   0.812   6.815   3.539 -0.7090  0.0798 -0.5729
    2PEO   H1BC 1146   0.939   6.831   3.421  1.7046  0.5980 -0.0530
    2PEO   C1BD 1147   0.918   6.841   3.528 -0.6622 -0.0376 -0.3867
    2PEO   C1BE 1148   0.930   6.984   3.593 -0.0002 -0.3425  1.1379
    2PEO   H1BF 1149   0.836   7.035   3.568  0.6061  1.8176  2.8443
    2PEO   H1C0 1150   0.931   6.980   3.703 -2.0974  0.3905  1.2161
    2PEO   O1C1 1151   1.041   7.059   3.535 -0.0266 -0.2256  0.0741
    2PEO   H1C2 1152   1.097   7.208   3.679 -3.0767  2.3176  1.1038
    2PEO   H1C3 1153   0.961   7.244   3.573  0.0329  0.6183  0.0878
    2PEO   C1C4 1154   1.059   7.194   3.576 -0.3801 -0.1931  0.2988
    2PEO   C1C5 1155   1.154   7.266   3.473  0.4473 -0.2955  0.3977
    2PEO   H1C6 1156   1.135   7.217   3.376 -0.1437  0.2957  0.2069
    2PEO   H1C7 1157   1.136   7.372   3.451  2.5230  0.0667  0.2214
    2PEO   O1C8 1158   1.288   7.249   3.504  0.2082  0.7974  0.0173
    2PEO   H1C9 1159   1.383   7.089   3.391 -0.4592  0.1137  0.6363
    2PEO   H1CA 1160   1.308   7.040   3.544 -1.1970  0.7849  0.7942
    2PEO   C1CB 1161   1.362   7.122   3.494  0.2585 -0.1049  0.8603
    2PEO   C1CC 1162   1.493   7.149   3.564  0.5489 -0.0832  0.1770
    2PEO   H1CD 1163   1.462   7.194   3.659  1.1545 -0.9715  0.8198
    2PEO   H1CE 1164   1.550   7.060   3.594  3.6673  1.8051  0.2677
    2PEO   O1CF 1165   1.582   7.254   3.493 -0.3359 -0.2003 -0.4356
    2PEO   H1D0 1166   1.679   7.307   3.319  0.0108  0.5800  0.5195
    2PEO   H1D1 1167   1.526   7.232   3.286  0.4515 -4.0233 -1.8398
    2PEO   C1D2 1168   1.612   7.228   3.354 -0.3401  0.5296 -0.2520
    2PEO   C1D3 1169   1.684   7.099   3.324  0.1633  0.6768 -0.0601
    2PEO   H1D4 1170   1.746   7.112   3.234  1.4310 -2.2271  0.2737
    2PEO   H1D5 1171   1.751   7.068   3.405 -0.4067 -0.5115 -0.0155
    2PEO   O1D6 1172   1.591   6.992   3.296 -0.3975  0.6374  0.0392
    2PEO   H1D7 1173   1.700   6.846   3.384 -0.8485  1.1377 -0.4292
    2PEO   H1D8 1174   1.711   6.851   3.208 -0.7678  1.1358 -1.3089
    2PEO   C1D9 1175   1.641   6.859   3.291 -0.3280  0.4519 -0.8676
    2PEO   C1DA 1176   1.516   6.765   3.292 -0.1985  0.6509  0.6581
    2PEO   H1DB 1177   1.560   6.664   3.292 -0.9449  0.2751  2.4709
    2PEO   H1DC 1178   1.461   6.785   3.386 -1.2612 -1.5436  0.5655
    2PEO   O1DD 1179   1.445   6.775   3.169  0.0090 -0.2201  0.8768
    2PEO   H1DE 1180   1.281   6.672   3.258  3.4710 -0.5462  1.7572
    2PEO   H1DF 1181   1.377   6.589   3.141 -1.6710 -0.6071 -0.8167
    2PEO   C1E0 1182   1.335   6.688   3.164  0.2387  0.0976 -0.1611
    2PEO   C1E1 1183   1.242   6.735   3.053  0.5218  0.1073  0.5092
    2PEO   H1E2 1184   1.137   6.707   3.071  0.1172  0.7519 -0.7276
    2PEO   H1E3 1185   1.245   6.845   3.061  0.9728  0.0265  1.7150
    2PEO   O1E4 1186   1.286   6.681   2.925 -0.3146 -0.2704 -0.4462
    2PEO   H1E5 1187   1.159   6.529   2.899 -0.0330  0.0822  1.0198
    2PEO   H1E6 1188   1.309   6.481   2.982  3.3636 -1.0545 -2.6741
    2PEO   C1E7 1189   1.268   6.543   2.900  0.0309 -0.0601 -0.4963
    2PEO   C1E8 1190   1.354   6.516   2.772  0.4658  0.3788  0.2363
    2PEO   H1E9 1191   1.457   6.543   2.800 -0.0748 -0.5804  3.4991
    2PEO   H1EA 1192   1.345   6.411   2.742 -1.2492  0.1487  1.3970
    2PEO   O1EB 1193   1.319   6.606   2.663 -0.2170  0.1812  0.7397
    2PEO   H1EC 1194   1.507   6.644   2.607 -1.4196  1.1972  0.6843
    2PEO   H1ED 1195   1.405   6.671   2.477  0.5041  0.2073 -0.0040
    2PEO   C1EE 1196   1.420   6.598   2.558 -0.5028  0.0586  0.0676
    2PEO   C1EF 1197   1.431   6.461   2.495 -0.0659 -0.1797 -0.8264
    2PEO   H1F0 1198   1.338   6.409   2.522 -0.6974  1.4951  0.4641
    2PEO   H1F1 1199   1.448   6.472   2.387 -2.3094  0.5725 -1.1721
    2PEO   O1F2 1200   1.538   6.397   2.562 -0.0756 -0.2350 -0.3048
    2PEO   H1F3 1201   1.597   6.262   2.417 -0.1494 -1.1152 -0.0136
    2PEO   H1F4 1202   1.491   6.193   2.541  1.9921 -2.1977  0.1517
    2PEO   C1F5 1203   1.569   6.268   2.524 -0.3091  0.3076 -0.1211
    2PEO   C1F6 1204   1.694   6.228   2.611 -0.1558  0.3994  0.3443
    2PEO   H1F7 1205   1.686   6.263   2.715 -1.6675  1.3491 -0.0508
    2PEO   H1F8 1206   1.697   6.120   2.594 -3.8371  0.4478 -1.7658
    2PEO   O1F9 1207   1.819   6.290   2.563 -0.1892  0.2667  0.8012
    2PEO   H1FA 1208   1.881   6.346   2.745 -2.0002 -0.8081 -0.6769
    2PEO   H1FB 1209   2.010   6.363   2.614  1.7241 -2.4544 -0.1379
    2PEO   C1FC 1210   1.927   6.303   2.655 -0.1344 -0.0480 -0.1395
    2PEO   C1FD 1211   1.973   6.151   2.685  0.5554  0.2699  0.0159
    2PEO   H1FE 1212   1.976   6.093   2.591  0.7659  1.0444 -0.4667
    2PEO   H1FF 1213   2.075   6.165   2.722  0.9214  0.3085 -0.9680
    2PEO   O200 1214   1.878   6.092   2.775  0.7949 -0.0395  0.0555
    2PEO   H201 1215   1.984   5.909   2.840  1.0510  0.5356 -0.8879
    2PEO   H202 1216   1.869   5.893   2.706 -0.9360 -0.7242 -0.0016
    2PEO   C203 1217   1.887   5.944   2.802  0.5921 -0.2868 -0.4969
    2PEO   C204 1218   1.775   5.898   2.899 -0.3428 -0.3640 -0.2018
    2PEO   H205 1219   1.684   5.956   2.876 -0.3632  1.0089  2.9235
    2PEO   H206 1220   1.762   5.790   2.883  0.2993 -0.6249  1.0020
    2PEO   O207 1221   1.814   5.925   3.034 -0.0015  0.5146 -0.4267
    2PEO   H208 1222   1.750   5.759   3.147 -3.0586  0.3597  3.0639
    2PEO   H209 1223   1.625   5.876   3.100  0.4683  2.2640 -2.7833
    2PEO   C20A 1224   1.729   5.866   3.133 -0.5099  0.6146  0.1320
    2PEO   C20B 1225   1.763   5.933   3.266 -0.4761  0.2624  0.1140
    2PEO   H20C 1226   1.676   5.899   3.325  1.4841 -1.9629  1.9268
    2PEO   H20D 1227   1.857   5.891   3.306 -0.3842 -1.7549 -2.0254
    2PEO   O20E 1228   1.761   6.077   3.255 -0.0975 -0.3736 -0.2319
    2PEO   H20F 1229   1.866   6.231   3.160  0.5230 -0.7342 -1.1164
    2PEO   H210 1230   1.944   6.082   3.133  0.2159  0.4047  0.5495
    2PEO   C211 1231   1.889   6.137   3.211 -0.4011 -0.1290  0.4941
    2PEO   C212 1232   1.981   6.164   3.329  0.3439  0.2009 -0.9498
    2PEO   H213 1233   2.045   6.239   3.279 -2.4989  2.3463 -1.6980
    2PEO   H214 1234   1.923   6.197   3.416  1.7973 -0.5244  0.3297
    2PEO   O215 1235   2.057   6.048   3.358  0.5243 -0.2429 -0.1128
    2PEO   H216 1236   2.085   6.035   3.558  0.9421 -1.0265  0.8338
    2PEO   H217 1237   2.159   6.176   3.483 -0.7497  0.3034 -1.8887
    2PEO   C218 1238   2.136   6.070   3.467 -0.5344 -0.1247  0.3149
    2PEO   C219 1239   2.270   6.002   3.442  0.6470  0.0092  0.0665
    2PEO   H21A 1240   2.331   6.008   3.533 -0.0364 -0.6821  0.5797
    2PEO   H21B 1241   2.242   5.903   3.402 -0.9258  0.8377 -0.9918
    2PEO   O21C 1242   2.337   6.087   3.337 -0.8104  0.4028  0.6348
    2PEO   H21D 1243   2.501   6.095   3.459  2.3398  1.3120 -0.3554
    2PEO   H21E 1244   2.541   6.157   3.298 -1.4431  2.0194  1.4195
    2PEO   C21F 1245   2.479   6.084   3.352  0.3917 -0.6429  0.1588
    2PEO   C220 1246   2.542   5.953   3.306  0.1538  0.3309 -0.4823
    2PEO   H221 1247   2.647   5.961   3.337  0.0064  2.3257 -0.3913
    2PEO   H222 1248   2.502   5.867   3.363  0.2210  0.0782 -0.8115
    2PEO   O223 1249   2.528   5.928   3.162  0.9641 -0.2141 -0.4564
    2PEO   H224 1250   2.428   5.749   3.153 -0.0466  0.9904 -0.0671
    2PEO   H225 1251   2.598   5.734   3.206  1.1837 -2.2121 -2.4085
    2PEO   C226 1252   2.530   5.787   3.138  0.3466 -0.0274 -0.0306
    2PEO   C227 1253   2.569   5.756   2.997  0.4116  0.1597  1.0006
    2PEO   H228 1254   2.551   5.650   2.977  1.9549  0.3775 -2.2912
    2PEO   H229 1255   2.528   5.822   2.918  1.1467 -1.7695 -1.0970
    2PEO   O22A 1256   2.712   5.778   2.991  0.0014  0.4037  0.1502
    2PEO   H22B 1257   2.785   5.954   3.085 -2.7331 -0.3105  0.0406
    2PEO   H22C 1258   2.701   5.977   2.926  0.6048  0.1444 -1.0078
    2PEO   C22D 1259   2.763   5.910   2.987  0.0374 -0.1566 -0.7601
    2PEO   C22E 1260   2.889   5.895   2.905  0.4266  0.3191 -0.1985
    2PEO   H22F 1261   2.850   5.827   2.828 -1.8461  3.1029 -1.7225
    2PEO   H230 1262   2.920   5.982   2.845  1.3607 -0.6738 -1.1896
    2PEO   O231 1263   3.002   5.846   2.985 -0.1755 -0.2928 -0.1028
    2PEO   H232 1264   3.105   5.901   3.150 -0.6913 -0.5947  0.2058
    2PEO   H233 1265   3.011   6.034   3.065  1.6233  1.8768  0.3057
    2PEO   C234 1266   3.074   5.944   3.054 -0.5344  0.2433  0.5254
    2PEO   C235 1267   3.199   5.998   2.972  0.4632  1.2006  0.1162
    2PEO   H236 1268   3.262   6.058   3.038  2.9495  0.0051 -1.0319
    2PEO   H237 1269   3.260   5.915   2.932  0.4775  0.9263  0.6928
    2PEO   O238 1270   3.166   6.081   2.858  0.6162  0.2564  0.0296
    2PEO   H239 1271   3.315   6.001   2.728 -0.1952 -0.7601  2.0003
    2PEO   H23A 1272   3.353   6.150   2.816 -0.4343 -1.6072  1.9046
    2PEO   C23B 1273   3.273   6.096   2.763 -0.3436 -0.0822  0.1014
    2PEO   C23C 1274   3.208   6.169   2.646  0.3561  0.2469 -0.6005
    2PEO   H23D 1275   3.128   6.236   2.680  0.2154 -0.9707  1.7043
    2PEO   H23E 1276   3.285   6.231   2.599  0.9610  1.9696  2.3898
    2PEO   O23F 1277   3.149   6.084   2.547  0.0360  0.7098 -0.0197
    2PEO   H240 1278   3.234   6.180   2.401  1.1859 -0.2837  2.5033
    2PEO   H241 1279   3.079   6.254   2.453 -1.6047 -1.5400  1.4801
    2PEO   C242 1280   3.130   6.159   2.430  0.5346 -0.1924  0.3665
    2PEO   C243 1281   3.051   6.076   2.335  0.1878  0.2750  0.4893
    2PEO   H244 1282   2.971   6.036   2.399 -1.1645  1.3102 -0.4772
    2PEO   H245 1283   3.011   6.133   2.249 -0.4656  1.2981  1.4395
    2PEO   O246 1284   3.128   5.956   2.295 -0.1322 -0.1314 -0.8628
    2PEO   H247 1285   3.034   5.824   2.166  0.5485  0.5750 -0.9148
    2PEO   H248 1286   2.952   5.857   2.329  0.5169  1.8013  0.1080
    2PEO   C249 1287   3.046   5.839   2.275 -0.2535  0.3529 -0.7901
    2PEO   C24A 1288   3.109   5.705   2.329  0.7525 -0.9382 -0.2140
    2PEO   H24B 1289   3.085   5.616   2.268  2.1052 -0.7940 -1.0035
    2PEO   H24C 1290   3.217   5.724   2.326  1.0728 -1.9761  2.2160
    2PEO   O24D 1291   3.081   5.671   2.464  0.5214  0.0645 -0.7671
    2PEO   H24E 1292   3.055   5.867   2.552  1.0783  0.5064  2.9260
    2PEO   H24F 1293   3.222   5.812   2.542  0.9134 -0.8456  0.2038
    2PEO   C250 1294   3.119   5.778   2.557  0.6082 -0.1239 -0.1986
    2PEO   C251 1295   3.116   5.730   2.701 -0.8456  0.5465 -0.2796
    2PEO   H252 1296   3.105   5.816   2.768 -1.0010 -0.5005  1.0832
    2PEO   H253 1297   3.039   5.657   2.730 -0.3314 -0.2216 -0.7937
    2PEO   O254 1298   3.246   5.679   2.726 -0.5520 -0.1992 -0.0329
    2PEO   H255 1299   3.204   5.529   2.870  0.0093 -0.4064 -0.6538
    2PEO   H256 1300   3.227   5.696   2.933  2.5083  1.3536 -0.2999
    2PEO   C257 1301   3.258   5.624   2.857 -0.4479 -0.0900 -0.2950
    2PEO   C258 1302   3.407   5.599   2.892 -0.2142  0.5335 -0.0996
    2PEO   H259 1303   3.418   5.497   2.933 -0.5998  0.0721 -1.1285
    2PEO   H25A 1304   3.473   5.609   2.805  0.8268 -0.7357  0.5046
    2PEO   O25B 1305   3.444   5.703   2.991 -0.1763  0.1433 -0.4251
    2PEO   H25C 1306   3.632   5.731   3.111 -0.4269  1.1437  0.9458
    2PEO   H25D 1307   3.641   5.610   2.987 -1.6511 -1.4165 -0.3115
    2PEO   C25E 1308   3.572   5.652   3.062  0.2778  1.0907  0.1586
    2PEO   C25F 1309   3.542   5.531   3.159  0.8187  0.0582 -0.9879
    2PEO   H260 1310   3.458   5.469   3.123  1.3605 -1.4986  0.3132
    2PEO   H261 1311   3.634   5.472   3.161  0.3906 -0.6047 -0.0222
    2PEO   O262 1312   3.520   5.590   3.294 -0.2027  0.4608  0.0792
    2PEO   H263 1313   3.510   5.402   3.393  0.2894 -1.0992 -0.9260
    2PEO   H264 1314   3.352   5.485   3.365 -0.5074 -0.5936  1.9567
    2PEO   C265 1315   3.459   5.499   3.387 -0.0728 -1.1885  0.3796
    2PEO   C266 1316   3.457   5.570   3.524 -1.6082 -0.1407  0.2734
    2PEO   H267 1317   3.433   5.490   3.595  1.1882 -3.0271 -1.7360
    2PEO   H268 1318   3.558   5.600   3.557 -0.6213 -3.0164  0.1247
    2PEO   O269 1319   3.355   5.675   3.519 -0.5678 -0.3230 -0.3348
    2PEO   H26A 1320   3.393   5.701   3.722 -0.3497  1.7100  0.1072
    2PEO   H26B 1321   3.243   5.620   3.685 -2.7428  2.5251  1.9626
    2PEO   C26C 1322   3.310   5.699   3.650 -0.2517 -0.2406 -0.0069
    2PEO   C26D 1323   3.215   5.821   3.651  0.4219  0.6725  0.3225
    2PEO   H26E 1324   3.190   5.853   3.753 -0.3268 -0.8541  0.6493
    2PEO   H26F 1325   3.254   5.910   3.598  0.5141  1.8011  2.2064
    2PEO   O270 1326   3.099   5.762   3.586  1.1398 -0.1204  0.1806
    2PEO   H271 1327   3.068   5.888   3.413  0.3942  1.8593  1.2770
    2PEO   H272 1328   2.983   5.942   3.561  1.3341  0.4495  0.5791
    2PEO   C273 1329   3.016   5.854   3.503 -0.4059  0.0330  0.1736
    2PEO   C274 1330   2.895   5.773   3.445  0.2033  0.5411 -0.0177
    2PEO   H275 1331   2.832   5.825   3.372  0.2535  0.7202  0.0655
    2PEO   H276 1332   2.922   5.676   3.401  0.6035  0.6430 -0.0022
    2PEO   O277 1333   2.805   5.743   3.545  0.0117  0.1568  0.0751
    2PEO   H278 1334   2.701   5.595   3.451  0.9498 -0.4802  0.2821
    2PEO   H279 1335   2.622   5.749   3.449 -0.8859 -0.3692  0.7956
    2PEO   C27A 1336   2.678   5.681   3.515 -0.1000 -0.5227 -0.0082
    2PEO   C27B 1337   2.618   5.639   3.656  0.7235  0.4591 -0.4708
    2PEO   H27C 1338   2.664   5.707   3.729 -1.4794  0.8556  0.6553
    2PEO   H27D 1339   2.508   5.644   3.654  0.5510 -2.1701 -0.6542
    2PEO   O27E 1340   2.654   5.506   3.679 -0.4388  0.6213 -0.1241
    2PEO   H27F 1341   2.543   5.447   3.829 -0.4262  3.5139  0.8621
    2PEO   H280 1342   2.696   5.516   3.900 -0.7862 -0.2368  1.2578
    2PEO   C281 1343   2.652   5.457   3.818  0.0177 -0.0525  0.6875
    2PEO   C282 1344   2.704   5.312   3.838 -0.3922 -0.0453 -0.7255
    2PEO   H283 1345   2.662   5.274   3.932  2.6336  1.3202  1.3498
    2PEO   H284 1346   2.688   5.253   3.746 -0.7419  0.4347 -0.9809
    2PEO   O285 1347   2.846   5.320   3.871 -0.3094 -0.0681  0.3280
    2PEO   H286 1348   3.021   5.206   3.859  0.0210  0.7606 -0.1552
    2PEO   H287 1349   2.867   5.124   3.827 -0.5391  0.2893  0.7469
    2PEO   C288 1350   2.916   5.198   3.891  0.2824 -0.0630  0.5308
    2PEO   C289 1351   2.899   5.142   4.034 -0.3787  0.5012  0.4417
    2PEO   H28A 1352   2.790   5.137   4.052 -0.3313  1.3366  1.0245
    2PEO   H28B 1353   2.934   5.038   4.044  1.6222  0.8982 -1.7077
    2PEO   O28C 1354   2.968   5.232   4.118  0.2023  0.2036  0.5994
    2PEO   H28D 1355   3.018   5.278   4.323  0.4723 -1.4967  0.8395
    2PEO   H28E 1356   2.946   5.123   4.284  1.7795  0.4246  1.9936
    2PEO   C28F 1357   2.942   5.230   4.260 -0.4072  0.0978  0.6274
    2PEO   C290 1358   2.802   5.283   4.298 -0.5112 -0.2428  0.2042
    2PEO   H291 1359   2.819   5.356   4.378  2.2524 -1.3462  0.7308
    2PEO   H292 1360   2.755   5.334   4.213  0.8419  1.5836  0.4743
    2PEO   O293 1361   2.717   5.176   4.338 -0.9071  0.3433 -0.3345
    2PEO   H294 1362   2.517   5.236   4.315 -2.4220 -1.3974  1.4917
    2PEO   H295 1363   2.610   5.321   4.450  1.0397 -1.1704  2.3750
    2PEO   C296 1364   2.593   5.228   4.394 -0.5246  0.4496 -0.0451
    2PEO   C297 1365   2.549   5.110   4.482 -0.3267  0.8623 -0.4490
    2PEO   H298 1366   2.508   5.021   4.432 -1.6117  2.4036 -2.2894
    2PEO   H299 1367   2.636   5.072   4.539  0.3520  2.0610 -0.6482
    2PEO   O29A 1368   2.456   5.162   4.572  0.2523  0.2799  0.0892
    2PEO   H29B 1369   2.477   5.006   4.698 -0.5269 -2.2874 -0.5698
    2PEO   H29C 1370   2.318   5.016   4.631  0.7338 -0.1551 -0.3249
    2PEO   C29D 1371   2.400   5.079   4.668  0.9619 -0.5078 -0.2243
    2PEO   C29E 1372   2.344   5.176   4.785  0.4120 -0.1693 -0.0380
    2PEO   H29F 1373   2.327   5.277   4.744  0.4689  0.3795  1.2621
    2PEO   H2A0 1374   2.243   5.147   4.817  0.3713 -0.6942 -0.6136
    2PEO   O2A1 1375   2.451   5.176   4.883 -0.4934 -0.0447  0.7481
    2PEO   H2A2 1376   2.462   5.196   5.085  0.8564  0.9774 -0.1636
    2PEO   H2A3 1377   2.315   5.269   4.999 -0.0304  3.8773 -4.5879
    2PEO   C2A4 1378   2.424   5.254   4.999 -0.1872  0.5457 -0.0118
    2PEO   C2A5 1379   2.493   5.388   4.955 -0.5222  0.8045 -0.7152
    2PEO   H2A6 1380   2.510   5.395   4.847 -1.4990 -2.4263 -1.1899
    2PEO   H2A7 1381   2.447   5.481   4.991  2.0103  2.2321 -0.9956
    2PEO   O2A8 1382   2.626   5.383   5.001 -0.0840 -0.3773  0.2465
    2PEO   H2A9 1383   2.758   5.390   4.832 -0.1743 -1.1763 -0.9396
    2PEO   H2AA 1384   2.687   5.227   4.868  1.2230 -1.7689  0.4653
    2PEO   C2AB 1385   2.726   5.321   4.911  0.2882 -0.9053 -0.5087
    2PEO   C2AC 1386   2.854   5.295   4.997 -0.0542  0.3830  0.6734
    2PEO   H2AD 1387   2.813   5.240   5.083  0.1995 -1.1406 -0.1464
    2PEO   H2AE 1388   2.915   5.224   4.939 -1.3026 -0.6696  0.5948
    2PEO   O2AF 1389   2.923   5.416   5.032 -1.0756  0.1819  0.3251
    2PEO   H2B0 1390   3.123   5.346   5.051  1.9723  3.9361 -0.3566
    2PEO   H2B1 1391   3.018   5.324   5.196  0.6002 -2.1300 -0.6588
    2PEO   C2B2 1392   3.045   5.392   5.114 -0.3268 -0.3972  0.4032
    2PEO   C2B3 1393   3.113   5.520   5.170 -0.1492  0.0085  0.2069
    2PEO   H2B4 1394   3.038   5.573   5.231 -1.6962  1.0325 -2.4286
    2PEO   H2B5 1395   3.194   5.491   5.238 -1.2561  0.9581  2.0294
    2PEO   O2B6 1396   3.164   5.601   5.065 -0.7024 -0.2388 -0.1293
    2PEO   H2B7 1397   3.348   5.617   5.182  1.2028 -6.4264 -0.5828
    2PEO   H2B8 1398   3.328   5.730   5.036  1.5136 -0.0570  2.1032
    2PEO   C2B9 1399   3.311   5.631   5.079 -0.5312 -0.4884  0.4592
    2PEO   C2BA 1400   3.386   5.540   4.984 -0.2261 -0.3191  0.3235
    2PEO   H2BB 1401   3.486   5.522   5.026 -0.8953 -2.2316  1.2497
    2PEO   H2BC 1402   3.332   5.444   4.983 -2.2019  0.7501 -1.2672
    2PEO   O2BD 1403   3.388   5.577   4.851 -0.1582  0.1178  0.5409
    2PEO   H2BE 1404   3.303   5.540   4.821 -0.0239 -4.1385  4.1783
    3PEO   H001 1405   3.037   3.981   5.929  3.4880 -0.1365 -0.2069
    3PEO   H002 1406   2.954   4.051   6.072 -0.8711  1.3202 -1.4904
    3PEO   H003 1407   3.114   4.110   6.011  1.2721 -0.8948  3.3135
    3PEO   C004 1408   3.051   4.022   6.030 -0.4103 -0.3904  0.5851
    3PEO   C005 1409   3.119   3.934   6.132 -0.1195 -0.1514 -0.4563
    3PEO   H006 1410   3.216   3.924   6.081  0.1489 -0.6360  0.1374
    3PEO   H007 1411   3.139   3.986   6.227 -0.6815  1.5676 -1.2280
    3PEO   O008 1412   3.033   3.815   6.154 -0.8773 -0.4448  0.0729
    3PEO   H009 1413   3.034   3.607   6.141  0.2882  0.6692  1.9940
    3PEO   H00A 1414   3.198   3.687   6.148 -0.8940  0.0703  2.9613
    3PEO   C00B 1415   3.095   3.693   6.110  0.2793 -0.1993 -0.6538
    3PEO   C00C 1416   3.100   3.692   5.954 -0.8745  0.5612  1.2631
    3PEO   H00D 1417   3.127   3.588   5.930  1.8928  1.3964  0.4024
    3PEO   H00E 1418   3.001   3.713   5.909 -0.0252  4.0586  0.7157
    3PEO   O00F 1419   3.199   3.785   5.898 -0.3113  0.1366  0.4823
    3PEO   H010 1420   3.073   3.821   5.740 -0.2724 -2.2910  1.2526
    3PEO   H011 1421   3.192   3.702   5.705  1.3899 -0.2444  1.1735
    3PEO   C012 1422   3.180   3.799   5.754  0.3484 -0.0224  0.5094
    3PEO   C013 1423   3.270   3.921   5.697 -0.0532  0.0751 -0.1949
    3PEO   H014 1424   3.379   3.910   5.700  0.1478  1.9248  1.0065
    3PEO   H015 1425   3.242   3.924   5.591  2.2751 -0.6502 -0.8767
    3PEO   O016 1426   3.228   4.043   5.752 -0.4178  0.1688 -0.8790
    3PEO   H017 1427   3.261   4.160   5.593 -0.7793  2.2271  0.0554
    3PEO   H018 1428   3.400   4.152   5.714  0.7677 -0.7239  0.0145
    3PEO   C019 1429   3.291   4.157   5.699  0.8704  0.9222 -0.4137
    3PEO   C01A 1430   3.235   4.292   5.759  0.3332 -0.8335  0.2035
    3PEO   H01B 1431   3.293   4.376   5.719 -0.8843  0.2189  0.5731
    3PEO   H01C 1432   3.133   4.310   5.720  0.2448  2.3467  1.5952
    3PEO   O01D 1433   3.255   4.297   5.907  0.8072 -0.2449 -0.3873
    3PEO   H01E 1434   3.072   4.392   5.973 -0.4277 -0.4140  0.5823
    3PEO   H01F 1435   3.210   4.492   5.934  1.9065 -2.1381 -1.7106
    3PEO   C020 1436   3.181   4.399   5.983 -0.4032 -0.4603  0.3578
    3PEO   C021 1437   3.212   4.396   6.135 -0.0924  0.1542 -0.4212
    3PEO   H022 1438   3.322   4.406   6.137 -0.1621  1.0967  2.5916
    3PEO   H023 1439   3.162   4.478   6.188 -1.1454  0.1007 -1.2988
    3PEO   O024 1440   3.165   4.269   6.188  0.0368  0.1996 -0.4679
    3PEO   H025 1441   3.095   4.197   6.372 -2.9971  2.2562 -0.3621
    3PEO   H026 1442   3.124   4.360   6.379 -0.4113 -0.0631  1.3292
    3PEO   C027 1443   3.164   4.271   6.328 -0.5596  0.4667  0.2393
    3PEO   C028 1444   3.307   4.244   6.398 -0.1459 -0.4777  0.2287
    3PEO   H029 1445   3.292   4.224   6.505  0.7793 -0.4117  0.3742
    3PEO   H02A 1446   3.358   4.163   6.342  0.3510  0.3806 -0.5844
    3PEO   O02B 1447   3.386   4.370   6.388  0.6018  0.7025  0.0659
    3PEO   H02C 1448   3.574   4.418   6.346  0.0675  3.4897  2.3739
    3PEO   H02D 1449   3.561   4.247   6.396  0.4276  0.9083 -1.0172
    3PEO   C02E 1450   3.526   4.349   6.418  0.4596  0.6851  0.1279
    3PEO   C02F 1451   3.555   4.399   6.556  0.1866 -0.1045 -0.0463
    3PEO   H030 1452   3.661   4.382   6.577 -0.0013 -1.5593 -0.1584
    3PEO   H031 1453   3.548   4.509   6.554  0.5347 -0.0761 -2.2596
    3PEO   O032 1454   3.459   4.343   6.648 -0.5656  0.2251  0.0866
    3PEO   H033 1455   3.576   4.199   6.730 -0.3920  1.2544  2.2878
    3PEO   H034 1456   3.469   4.145   6.592 -0.0036 -0.3939  0.4576
    3PEO   C035 1457   3.477   4.207   6.682  0.2894 -0.4113  0.4446
    3PEO   C036 1458   3.353   4.180   6.771 -0.3243  0.2507  0.3940
    3PEO   H037 1459   3.261   4.208   6.718 -0.1777  2.7848  1.3683
    3PEO   H038 1460   3.355   4.072   6.792 -0.1509 -0.0408 -1.0150
    3PEO   O039 1461   3.366   4.251   6.897 -0.4657  0.2790 -0.1327
    3PEO   H03A 1462   3.319   4.412   6.999  2.4754 -2.3376  2.1306
    3PEO   H03B 1463   3.302   4.421   6.820 -0.9424  0.1698  0.9313
    3PEO   C03C 1464   3.368   4.392   6.903  0.2330  0.5791  0.1662
    3PEO   C03D 1465   3.512   4.444   6.911  0.0305  0.7869 -0.2099
    3PEO   H03E 1466   3.585   4.363   6.922  2.3054  2.7579 -0.0317
    3PEO   H03F 1467   3.548   4.506   6.828 -3.7787  1.7052 -1.3526
    3PEO   O040 1468   3.523   4.528   7.032  0.1377  0.2678  0.7040
    3PEO   H041 1469   3.666   4.668   6.980 -1.5159  1.5637 -0.1611
    3PEO   H042 1470   3.731   4.520   7.064  0.2642 -0.1437  0.6936
    3PEO   C043 1471   3.648   4.592   7.058  0.3510 -0.1461 -1.2858
    3PEO   C044 1472   3.634   4.667   7.191  0.3485 -0.3616 -1.1072
    3PEO   H045 1473   3.684   4.765   7.189 -1.2018  0.4718 -0.4760
    3PEO   H046 1474   3.528   4.680   7.217  0.5614 -1.9943  0.8867
    3PEO   O047 1475   3.705   4.589   7.296 -0.0238 -0.4962 -0.4249
    3PEO   H048 1476   3.718   4.746   7.441 -0.8546  0.1496 -0.7137
    3PEO   H049 1477   3.873   4.696   7.365  0.9974 -1.0262 -0.6822
    3PEO   C04A 1478   3.777   4.660   7.406  0.8396  0.7249  0.6130
    3PEO   C04B 1479   3.796   4.554   7.517  0.5146  0.1160 -0.2356
    3PEO   H04C 1480   3.870   4.482   7.482  1.9410  0.6158  1.5781
    3PEO   H04D 1481   3.849   4.600   7.602 -2.0787 -2.8304  3.2850
    3PEO   O04E 1482   3.662   4.505   7.565  0.1153 -0.1367 -0.4907
    3PEO   H04F 1483   3.712   4.434   7.757  0.7525  0.9115 -0.2754
    3PEO   H050 1484   3.708   4.310   7.626  0.8141  1.0189 -0.3300
    3PEO   C051 1485   3.659   4.399   7.667  0.1098  0.3516  0.3058
    3PEO   C052 1486   3.513   4.351   7.696 -0.6531  0.1531  0.4144
    3PEO   H053 1487   3.496   4.341   7.805 -0.5602 -1.5446  0.3045
    3PEO   H054 1488   3.440   4.416   7.645 -1.6872 -2.2051 -1.2674
    3PEO   O055 1489   3.501   4.223   7.633 -0.3318 -0.2260 -0.3985
    3PEO   H056 1490   3.304   4.278   7.613  0.0623  0.4924  0.1479
    3PEO   H057 1491   3.338   4.145   7.739  1.3723 -1.1285 -0.9075
    3PEO   C058 1492   3.361   4.188   7.640  0.3755  0.4993 -0.4697
    3PEO   C059 1493   3.342   4.064   7.545 -0.0642  0.1354  0.0378
    3PEO   H05A 1494   3.421   3.987   7.553 -0.5841 -0.4981 -0.6717
    3PEO   H05B 1495   3.243   4.021   7.565  0.3923 -0.3269  1.4157
    3PEO   O05C 1496   3.332   4.115   7.414  0.8731  0.3789 -0.2186
    3PEO   H05D 1497   3.285   3.944   7.292  0.5330  0.9534 -0.5765
    3PEO   H05E 1498   3.437   3.941   7.364 -2.1466 -1.0983  0.7434
    3PEO   C05F 1499   3.368   4.011   7.316  0.1647  1.0816  0.3982
    3PEO   C060 1500   3.422   4.059   7.182 -0.5547  0.3292 -1.0182
    3PEO   H061 1501   3.423   3.985   7.100 -1.3488 -0.4999 -0.3067
    3PEO   H062 1502   3.374   4.149   7.142 -2.2594  0.4406  1.1005
    3PEO   O063 1503   3.557   4.093   7.207  0.0225 -0.3069 -0.3788
    3PEO   H064 1504   3.526   4.244   7.356  1.6324 -0.1549  0.6760
    3PEO   H065 1505   3.546   4.296   7.183  1.6618  0.7291  0.5745
    3PEO   C066 1506   3.580   4.227   7.261  0.1885 -0.7929 -0.0604
    3PEO   C067 1507   3.733   4.251   7.265  0.5606 -0.0723 -0.1499
    3PEO   H068 1508   3.745   4.351   7.309 -3.2706  0.8153 -0.7839
    3PEO   H069 1509   3.785   4.180   7.332 -1.5941 -1.0031  0.6396
    3PEO   O06A 1510   3.789   4.259   7.125  0.0210  0.4375 -0.3851
    3PEO   H06B 1511   3.917   4.428   7.128  1.1559 -0.0420  4.0741
    3PEO   H06C 1512   3.968   4.302   7.014 -1.7962 -1.3795 -0.0601
    3PEO   C06D 1513   3.928   4.319   7.115  0.0919  0.1539  0.5039
    3PEO   C06E 1514   4.021   4.261   7.229 -0.1563  0.7122 -0.4932
    3PEO   H06F 1515   4.125   4.291   7.209  0.7723 -0.5345  2.0407
    3PEO   H070 1516   3.985   4.291   7.328 -2.3016 -2.1776 -0.2521
    3PEO   O071 1517   4.012   4.118   7.226  0.4857  0.0934 -0.1658
    3PEO   H072 1518   4.074   4.050   7.414  0.3366 -0.9017 -0.1451
    3PEO   H073 1519   4.204   4.093   7.295 -0.3521  0.1267  0.1718
    3PEO   C074 1520   4.107   4.042   7.309 -0.2716 -0.1912 -0.4002
    3PEO   C075 1521   4.126   3.904   7.252 -0.1708  0.2586  0.1235
    3PEO   H076 1522   4.109   3.908   7.143 -1.5139  1.1131  0.3462
    3PEO   H077 1523   4.221   3.856   7.280 -1.2680 -1.1505  1.6108
    3PEO   O078 1524   4.030   3.807   7.301 -0.1562 -0.2109  0.3469
    3PEO   H079 1525   3.919   3.821   7.138 -0.3046 -0.3074  0.5409
    3PEO   H07A 1526   3.842   3.896   7.283 -1.6697 -1.5023 -0.0279
    3PEO   C07B 1527   3.904   3.813   7.247 -0.0546 -0.5949  0.5567
    3PEO   C07C 1528   3.834   3.678   7.279 -0.0188 -0.7557 -0.1550
    3PEO   H07D 1529   3.838   3.667   7.388  0.5798  0.9456  0.0280
    3PEO   H07E 1530   3.732   3.696   7.241  0.4987  1.0019 -0.8442
    3PEO   O07F 1531   3.914   3.554   7.240  0.0237 -0.2057  0.4901
    3PEO   H080 1532   3.969   3.619   7.038 -1.1743 -0.0837 -0.5794
    3PEO   H081 1533   3.817   3.543   7.055  0.2100 -2.2505 -1.5155
    3PEO   C082 1534   3.919   3.539   7.094 -0.2575 -0.1729  0.1359
    3PEO   C083 1535   3.981   3.400   7.069  0.1118 -0.4716 -0.0937
    3PEO   H084 1536   4.025   3.405   6.968 -2.5619 -0.1693 -1.3160
    3PEO   H085 1537   4.068   3.386   7.135 -0.8754 -0.7623  1.1783
    3PEO   O086 1538   3.894   3.291   7.095 -0.8466 -0.2800  0.0112
    3PEO   H087 1539   3.733   3.362   7.197 -0.4388 -1.1967 -3.6273
    3PEO   H088 1540   3.876   3.316   7.303 -0.5032  3.8129 -0.4752
    3PEO   C089 1541   3.815   3.290   7.215 -0.4480 -0.3956  0.4933
    3PEO   C08A 1542   3.767   3.149   7.230  0.4734  0.4068  0.5000
    3PEO   H08B 1543   3.839   3.066   7.225 -1.2929 -1.3751  2.4185
    3PEO   H08C 1544   3.723   3.149   7.331  1.4313 -0.4277  0.9386
    3PEO   O08D 1545   3.660   3.132   7.128 -0.0544  0.2130 -0.3065
    3PEO   H08E 1546   3.553   2.973   7.228 -1.5422  2.9306  0.5252
    3PEO   H08F 1547   3.630   2.936   7.066 -1.3773 -0.8666  0.1567
    3PEO   C090 1548   3.578   3.011   7.128 -0.2105  0.3065 -0.2318
    3PEO   C091 1549   3.443   3.052   7.055  0.1883  0.0685  0.2085
    3PEO   H092 1550   3.466   3.088   6.953 -0.1816  2.5817  0.9510
    3PEO   H093 1551   3.378   2.968   7.028  1.8376 -0.6674 -1.7759
    3PEO   O094 1552   3.370   3.157   7.130 -0.1849  0.5478 -0.9144
    3PEO   H095 1553   3.188   3.167   7.028  1.0214 -1.8419  1.8554
    3PEO   H096 1554   3.323   3.246   6.949 -0.3437 -3.1492 -1.4638
    3PEO   C097 1555   3.277   3.229   7.047  0.1416  0.3105 -0.5156
    3PEO   C098 1556   3.234   3.361   7.112 -0.4755  0.5073 -0.9722
    3PEO   H099 1557   3.157   3.399   7.044 -1.6366 -0.3335 -0.1722
    3PEO   H09A 1558   3.177   3.331   7.201  1.9711  1.2785  0.9770
    3PEO   O09B 1559   3.335   3.457   7.135 -0.1615  0.1594  0.7330
    3PEO   H09C 1560   3.531   3.400   7.199 -0.5248  1.2253 -0.9602
    3PEO   H09D 1561   3.403   3.333   7.299  0.9891 -0.1216  0.6931
    3PEO   C09E 1562   3.432   3.421   7.240 -0.3086  0.0225  0.2327
    3PEO   C09F 1563   3.433   3.536   7.346 -0.0701  0.4806 -1.1263
    3PEO   H0A0 1564   3.506   3.507   7.422 -0.2451  1.5483 -0.5343
    3PEO   H0A1 1565   3.471   3.626   7.297  1.8288 -1.7666 -4.1816
    3PEO   O0A2 1566   3.301   3.549   7.409 -0.2556 -0.0172 -0.0331
    3PEO   H0A3 1567   3.275   3.740   7.445 -1.5560 -0.8768 -1.4510
    3PEO   H0A4 1568   3.390   3.656   7.570 -0.5730 -0.9215  0.4446
    3PEO   C0A5 1569   3.299   3.654   7.509 -0.3271  0.4720 -0.0006
    3PEO   C0A6 1570   3.182   3.619   7.607 -0.7214 -1.4942  0.3677
    3PEO   H0A7 1571   3.181   3.685   7.695 -0.3609  0.2618 -0.8825
    3PEO   H0A8 1572   3.087   3.630   7.553 -0.8101  0.1170  0.8171
    3PEO   O0A9 1573   3.197   3.486   7.652 -0.2956 -0.5249  0.2787
    3PEO   H0AA 1574   3.262   3.564   7.835  2.2432  4.2782 -2.2181
    3PEO   H0AB 1575   3.390   3.516   7.722 -0.1070 -0.6970 -0.7443
    3PEO   C0AC 1576   3.292   3.487   7.763  0.2202  0.2453  0.8299
    3PEO   C0AD 1577   3.298   3.349   7.838  0.6462  0.8515  0.0992
    3PEO   H0AE 1578   3.324   3.268   7.769  2.2384  1.5472 -0.1615
    3PEO   H0AF 1579   3.383   3.362   7.907  0.0693 -0.9500  1.2179
    3PEO   O0B0 1580   3.174   3.331   7.897  0.3168  0.8292  0.1163
    3PEO   H0B1 1581   3.038   3.417   8.030  0.3645 -0.7624  0.4773
    3PEO   H0B2 1582   3.204   3.497   8.031  1.3247 -0.7425  0.2523
    3PEO   C0B3 1583   3.147   3.402   8.025  0.4314 -0.2215  0.3139
    3PEO   C0B4 1584   3.200   3.315   8.148  0.2998  0.3434  0.6561
    3PEO   H0B5 1585   3.158   3.338   8.247 -1.2372 -1.9372  0.6043
    3PEO   H0B6 1586   3.156   3.219   8.117 -0.4559  1.2137 -1.1593
    3PEO   O0B7 1587   3.338   3.311   8.143 -0.7901  0.0163 -0.6988
    3PEO   H0B8 1588   3.407   3.369   8.331 -2.1823  0.0126  0.9864
    3PEO   H0B9 1589   3.363   3.502   8.229  0.0821 -0.6894 -0.0046
    3PEO   C0BA 1590   3.408   3.402   8.227 -0.3737 -0.9199  0.6657
    3PEO   C0BB 1591   3.544   3.423   8.163  0.3283 -0.1617  0.1479
    3PEO   H0BC 1592   3.527   3.475   8.067 -0.1995  1.4667  1.0806
    3PEO   H0BD 1593   3.594   3.498   8.226 -2.7487  2.2023  0.0137
    3PEO   O0BE 1594   3.628   3.309   8.142 -0.5918 -0.2055 -0.1667
    3PEO   H0BF 1595   3.781   3.447   8.115  2.8502 -0.5872 -1.0829
    3PEO   H0C0 1596   3.729   3.368   7.966  5.8341  3.1167 -0.7138
    3PEO   C0C1 1597   3.747   3.351   8.073 -0.9495 -0.0897  0.4760
    3PEO   C0C2 1598   3.871   3.255   8.089 -0.0092 -0.2339  0.0833
    3PEO   H0C3 1599   3.941   3.277   8.007 -0.3924 -0.8597 -0.4226
    3PEO   H0C4 1600   3.926   3.274   8.182  0.9207 -1.9880 -0.0560
    3PEO   O0C5 1601   3.826   3.121   8.069 -0.0744 -0.1854  0.1582
    3PEO   H0C6 1602   3.917   3.027   8.237  0.2649  1.8447  0.3342
    3PEO   H0C7 1603   4.008   3.016   8.095  1.2022  0.7547  1.4797
    3PEO   C0C8 1604   3.903   3.014   8.129  0.8577  0.1012  0.4303
    3PEO   C0C9 1605   3.850   2.875   8.102  0.3309 -0.4450  0.3747
    3PEO   H0CA 1606   3.897   2.804   8.172  0.0345  0.3876  1.4404
    3PEO   H0CB 1607   3.742   2.857   8.098  0.2629  0.0983 -2.2226
    3PEO   O0CC 1608   3.903   2.832   7.978 -0.0017  0.1770  0.1601
    3PEO   H0CD 1609   3.721   2.754   7.915 -0.4193 -2.2622  0.3749
    3PEO   H0CE 1610   3.834   2.627   7.973  1.0125  0.9626  1.7600
    3PEO   C0CF 1611   3.827   2.724   7.920  0.2802 -0.0759 -0.1203
    3PEO   C0D0 1612   3.894   2.722   7.782  0.0586 -0.2494  0.4468
    3PEO   H0D1 1613   3.815   2.686   7.715 -0.6120  0.7114  0.6916
    3PEO   H0D2 1614   3.924   2.820   7.743  0.6324  0.8011  3.2393
    3PEO   O0D3 1615   4.000   2.636   7.781 -0.3701  0.0557  0.1309
    3PEO   H0D4 1616   4.082   2.666   7.591  1.0346 -0.6042  0.1091
    3PEO   H0D5 1617   3.944   2.553   7.593 -1.3218  2.5283 -1.9562
    3PEO   C0D6 1618   4.032   2.586   7.649 -0.5336 -0.5743 -1.1238
    3PEO   C0D7 1619   4.144   2.480   7.678 -0.4767 -0.0436  0.0567
    3PEO   H0D8 1620   4.150   2.469   7.788 -3.4793  1.6933  0.5006
    3PEO   H0D9 1621   4.122   2.389   7.620 -0.2197 -0.8478  1.1825
    3PEO   O0DA 1622   4.265   2.524   7.624  0.0313 -0.1482 -0.2935
    3PEO   H0DB 1623   4.384   2.399   7.739  2.5956  1.9428  1.3437
    3PEO   H0DC 1624   4.471   2.512   7.629 -1.3553  0.3325 -2.1405
    3PEO   C0DD 1625   4.385   2.444   7.638 -0.5710 -0.4409  0.0739
    3PEO   C0DE 1626   4.394   2.335   7.536 -0.4234 -0.3417 -0.3083
    3PEO   H0DF 1627   4.462   2.257   7.576 -0.7414 -0.4590  0.0071
    3PEO   H0E0 1628   4.294   2.293   7.519 -2.3210  4.6416 -3.3581
    3PEO   O0E1 1629   4.438   2.396   7.412  0.0230  0.3660 -0.1221
    3PEO   H0E2 1630   4.454   2.224   7.301  0.1143  0.2485 -0.1739
    3PEO   H0E3 1631   4.599   2.258   7.398 -0.7725 -0.4085  1.1302
    3PEO   C0E4 1632   4.521   2.304   7.335 -0.0898  0.0834  0.6335
    3PEO   C0E5 1633   4.571   2.377   7.207 -0.3759  0.2547 -0.2500
    3PEO   H0E6 1634   4.632   2.306   7.149 -0.4923  0.2694 -0.3912
    3PEO   H0E7 1635   4.485   2.399   7.142  0.4051 -0.7211 -1.6666
    3PEO   O0E8 1636   4.652   2.494   7.241  0.7379 -0.1354  0.2962
    3PEO   H0E9 1637   4.836   2.415   7.221 -0.0609 -1.3608 -0.5249
    3PEO   H0EA 1638   4.756   2.390   7.382 -1.7106  1.9688  0.9317
    3PEO   C0EB 1639   4.778   2.461   7.301 -0.0395 -0.5362 -0.9745
    3PEO   C0EC 1640   4.857   2.576   7.361 -0.8101  0.0329 -0.1494
    3PEO   H0ED 1641   4.809   2.627   7.446  0.7623 -0.8382  1.3135
    3PEO   H0EE 1642   4.942   2.528   7.412 -2.0926 -1.5510  0.6096
    3PEO   O0EF 1643   4.896   2.670   7.264  0.3548  0.3546  0.1371
    3PEO   H0F0 1644   4.781   2.821   7.356  0.8736 -2.3470  0.7051
    3PEO   H0F1 1645   4.872   2.880   7.224 -0.3568 -0.8194 -0.9193
    3PEO   C0F2 1646   4.878   2.807   7.306  0.6170 -0.2612 -0.4762
    3PEO   C0F3 1647   4.993   2.856   7.397  0.7411 -0.0245  0.1975
    3PEO   H0F4 1648   4.973   2.946   7.457  2.2057 -0.2675  1.0963
    3PEO   H0F5 1649   5.008   2.763   7.453  0.1161 -1.6147 -2.1092
    3PEO   O0F6 1650   5.108   2.881   7.319  0.5891  0.3890 -0.3858
    3PEO   H0F7 1651   5.318   2.904   7.333  0.0306 -0.6721 -1.4548
    3PEO   H0F8 1652   5.219   2.894   7.487 -2.8668  1.3264 -0.2513
    3PEO   C0F9 1653   5.223   2.930   7.383  0.7810  0.3984 -0.5554
    3PEO   C0FA 1654   5.211   3.081   7.401 -0.5158 -0.3308  0.3435
    3PEO   H0FB 1655   5.105   3.103   7.418 -0.4466 -0.2404  0.6594
    3PEO   H0FC 1656   5.270   3.134   7.477 -2.5461  1.8454  0.5251
    3PEO   O0FD 1657   5.237   3.146   7.277 -0.5048  0.4553  0.1878
    3PEO   H0FE 1658   5.267   3.345   7.345  0.3391 -1.2554  0.8520
    3PEO   H0FF 1659   5.109   3.315   7.263 -0.0040 -0.6614 -1.4707
    3PEO   C100 1660   5.217   3.293   7.263  0.0939 -0.4165  0.4565
    3PEO   C101 1661   5.277   3.350   7.132  0.2231 -0.5569  0.1424
    3PEO   H102 1662   5.260   3.301   7.035  1.8462  1.5983 -1.3544
    3PEO   H103 1663   5.238   3.452   7.117  1.4896  0.0409  0.6881
    3PEO   O104 1664   5.420   3.385   7.143  0.3254 -0.2567  0.9635
    3PEO   H105 1665   5.536   3.227   7.063  0.7740  2.5597 -0.5050
    3PEO   H106 1666   5.483   3.200   7.228  1.3574 -1.7629  0.5494
    3PEO   C107 1667   5.518   3.278   7.159 -0.8271 -0.3835  0.8793
    3PEO   C108 1668   5.653   3.338   7.203  0.3820 -0.3757  0.5234
    3PEO   H109 1669   5.731   3.260   7.204  0.6516 -0.1071  1.9953
    3PEO   H10A 1670   5.682   3.413   7.129 -0.0698  1.9283  2.5479
    3PEO   O10B 1671   5.644   3.407   7.329  0.7660 -0.2939 -0.4023
    3PEO   H10C 1672   5.756   3.501   7.469  0.2737  0.7010 -0.2600
    3PEO   H10D 1673   5.822   3.509   7.303  0.6124  1.6453  2.0792
    3PEO   C10E 1674   5.770   3.446   7.375  0.2933 -0.2327  0.2857
    3PEO   C10F 1675   5.861   3.316   7.418 -0.2072 -0.1369 -0.4967
    3PEO   H110 1676   5.920   3.332   7.510  1.1337 -1.8221 -1.0287
    3PEO   H111 1677   5.796   3.229   7.436  2.0331 -2.4199 -2.7422
    3PEO   O112 1678   5.954   3.279   7.312  0.2844  0.4222  0.1145
    3PEO   H113 1679   5.939   3.079   7.374  0.4105 -0.1577  0.2011
    3PEO   H114 1680   6.065   3.161   7.447 -1.4143 -4.6591  2.1291
    3PEO   C115 1681   6.016   3.152   7.349  0.4981 -0.1451  0.4977
    3PEO   C116 1682   6.112   3.098   7.241  0.1115 -0.5295  0.6195
    3PEO   H117 1683   6.144   2.994   7.254 -0.9695 -1.0629 -0.6755
    3PEO   H118 1684   6.063   3.094   7.142  3.7284 -2.5755 -1.3047
    3PEO   O119 1685   6.235   3.185   7.224  0.7438  0.3835 -1.3569
    3PEO   H11A 1686   6.375   3.027   7.202 -2.3071 -0.9051 -1.2050
    3PEO   H11B 1687   6.441   3.183   7.162  2.6017 -2.2073 -5.9019
    3PEO   C11C 1688   6.348   3.124   7.158  0.2405  0.3202 -0.2614
    3PEO   C11D 1689   6.317   3.099   7.011 -0.7324 -0.1112 -0.0297
    3PEO   H11E 1690   6.255   3.181   6.971 -2.9911  0.0147  3.3341
    3PEO   H11F 1691   6.412   3.103   6.955 -0.0013  3.0802  1.2235
    3PEO   O120 1692   6.247   2.977   6.981  0.0565  0.3702 -0.1791
    3PEO   H121 1693   6.377   2.852   7.072  0.8340  0.5877 -0.1438
    3PEO   H122 1694   6.390   2.849   6.897 -0.4634  1.1583 -0.4450
    3PEO   C123 1695   6.319   2.861   6.980  0.2057  0.5443  0.2412
    3PEO   C124 1696   6.204   2.751   6.982  0.0299 -0.1352  0.0670
    3PEO   H125 1697   6.264   2.659   6.977  1.3415  0.6292  0.9345
    3PEO   H126 1698   6.144   2.747   7.074 -1.1109 -1.9854 -0.7157
    3PEO   O127 1699   6.117   2.785   6.867 -0.8041  0.0587  0.4205
    3PEO   H128 1700   5.952   2.678   6.932  1.6445  0.6433  0.3966
    3PEO   H129 1701   6.053   2.581   6.815 -2.5008 -1.5934 -1.7511
    3PEO   C12A 1702   6.017   2.681   6.843  0.1883 -0.8246 -0.8036
    3PEO   C12B 1703   5.922   2.728   6.721  0.5673  0.0480  0.4033
    3PEO   H12C 1704   5.824   2.678   6.726  1.2509 -1.1841  2.4608
    3PEO   H12D 1705   5.914   2.838   6.724  0.1265  0.0152  0.5005
    3PEO   O12E 1706   5.998   2.708   6.600 -0.2827 -0.7342  0.6946
    3PEO   H12F 1707   5.896   2.556   6.485 -0.6220  0.5554  0.9104
    3PEO   H130 1708   5.982   2.504   6.616  1.3395 -0.7737 -0.1719
    3PEO   C131 1709   5.990   2.580   6.537 -0.1434 -0.0501  0.3514
    3PEO   C132 1710   6.115   2.547   6.450 -0.9711  0.7918  0.9114
    3PEO   H133 1711   6.206   2.571   6.507 -0.5753  0.0128  0.6266
    3PEO   H134 1712   6.119   2.438   6.435  0.7858  1.2272 -3.0838
    3PEO   O135 1713   6.096   2.616   6.325  0.3983  0.4356 -0.0704
    3PEO   H136 1714   6.220   2.483   6.205  0.3580  0.7521 -0.8795
    3PEO   H137 1715   6.302   2.615   6.275 -0.0248  0.5086  1.3715
    3PEO   C138 1716   6.204   2.588   6.232  0.3516  0.3978  0.5766
    3PEO   C139 1717   6.185   2.678   6.110 -0.1781 -0.6485 -0.4160
    3PEO   H13A 1718   6.148   2.780   6.130  1.6729  0.5148 -2.4681
    3PEO   H13B 1719   6.278   2.685   6.052 -0.9117  1.5183 -1.4364
    3PEO   O13C 1720   6.089   2.609   6.029  0.3586 -1.1919  0.1069
    3PEO   H13D 1721   6.101   2.760   5.879 -0.9647  0.8870  1.2892
    3PEO   H13E 1722   5.960   2.648   5.863 -0.2463  3.7102 -2.2085
    3PEO   C13F 1723   6.066   2.656   5.890 -0.3578  0.5051 -0.2287
    3PEO   C140 1724   6.140   2.553   5.801  0.5648 -0.3982  1.3313
    3PEO   H141 1725   6.121   2.453   5.842 -3.0638  0.5010  2.1248
    3PEO   H142 1726   6.109   2.560   5.696  0.0698  4.9291  1.5484
    3PEO   O143 1727   6.282   2.586   5.796 -0.0960 -0.1197  0.4778
    3PEO   H144 1728   6.260   2.755   5.682 -0.1423 -0.7112  1.8796
    3PEO   H145 1729   6.337   2.622   5.593 -0.3243 -1.2358 -0.6011
    3PEO   C146 1730   6.331   2.672   5.691 -0.4396 -1.3002 -0.5755
    3PEO   C147 1731   6.469   2.717   5.734  0.1196  0.2568 -0.1027
    3PEO   H148 1732   6.533   2.627   5.738 -0.2284 -0.1450 -2.4214
    3PEO   H149 1733   6.510   2.784   5.657  0.7679 -1.1629 -1.0386
    3PEO   O14A 1734   6.464   2.793   5.857 -0.0245  0.5663  0.3640
    3PEO   H14B 1735   6.649   2.735   5.945  2.2141  1.8770  0.0069
    3PEO   H14C 1736   6.568   2.854   6.031 -1.3879  0.0605  0.8272
    3PEO   C14D 1737   6.589   2.825   5.927 -0.2500  0.5117  0.9153
    3PEO   C14E 1738   6.670   2.935   5.845 -0.0146  0.0010 -0.0123
    3PEO   H14F 1739   6.774   2.944   5.881  0.5662 -2.5720 -0.8401
    3PEO   H150 1740   6.695   2.903   5.743  3.0209 -0.5663  0.7908
    3PEO   O151 1741   6.602   3.064   5.840 -0.3979  0.4255 -0.5831
    3PEO   H152 1742   6.543   3.224   5.711 -0.0997 -0.1278 -2.1031
    3PEO   H153 1743   6.656   3.113   5.638  1.9317  3.6761 -1.2165
    3PEO   C154 1744   6.627   3.158   5.734 -0.3532  0.1792 -0.0674
    3PEO   C155 1745   6.746   3.244   5.767 -0.1104 -0.3642 -0.3901
    3PEO   H156 1746   6.733   3.338   5.713 -3.0307 -0.1624  0.4779
    3PEO   H157 1747   6.752   3.268   5.874 -2.9230 -0.3983 -0.1344
    3PEO   O158 1748   6.864   3.180   5.730  0.1092 -0.5162 -0.4357
    3PEO   H159 1749   7.080   3.185   5.773  2.0382  1.2529  0.0361
    3PEO   H15A 1750   6.972   3.291   5.866 -2.5519  2.7153 -2.1513
    3PEO   C15B 1751   6.991   3.249   5.766  0.9514 -0.2346 -0.4596
    3PEO   C15C 1752   7.010   3.372   5.669  0.1317 -0.4926  0.1822
    3PEO   H15D 1753   6.907   3.410   5.654  0.5901  2.2391  2.8896
    3PEO   H15E 1754   7.070   3.452   5.714  0.8136 -0.5314 -0.6411
    3PEO   O15F 1755   7.066   3.335   5.543 -0.5348  0.1784 -0.4132
    3PEO   H160 1756   7.135   3.525   5.516  0.6042 -3.0989  2.1151
    3PEO   H161 1757   6.978   3.491   5.434 -0.8889 -1.7779 -2.0394
    3PEO   C162 1758   7.079   3.453   5.454 -0.3309  0.0769 -1.1128
    3PEO   C163 1759   7.145   3.417   5.321  0.2523 -0.3649  0.0957
    3PEO   H164 1760   7.167   3.513   5.270 -1.7875  0.0185 -0.1191
    3PEO   H165 1761   7.236   3.357   5.337 -1.1288 -1.9310  2.5954
    3PEO   O166 1762   7.045   3.334   5.251 -0.5249 -0.1604  0.2863
    3PEO   H167 1763   7.006   3.209   5.094 -0.8258  2.3946 -1.2246
    3PEO   H168 1764   7.152   3.164   5.189 -0.9773 -0.9321 -0.4076
    3PEO   C169 1765   7.095   3.247   5.146 -0.4127 -0.2301  0.1814
    3PEO   C16A 1766   7.185   3.323   5.039 -0.0116 -0.0323 -0.1876
    3PEO   H16B 1767   7.200   3.261   4.950  2.5829 -0.0399  0.1572
    3PEO   H16C 1768   7.129   3.414   5.014  0.8248  0.1338 -1.5341
    3PEO   O16D 1769   7.312   3.357   5.098  0.3191  0.2123 -0.0988
    3PEO   H16E 1770   7.404   3.378   4.925 -0.4485  1.0858  0.2074
    3PEO   H16F 1771   7.504   3.422   5.064  0.2361  1.2807  0.5319
    3PEO   C170 1772   7.402   3.428   5.022  0.0018 -0.0957  0.8457
    3PEO   C171 1773   7.365   3.580   5.013  0.1868  0.4980  0.2909
    3PEO   H172 1774   7.320   3.606   5.110 -0.1836 -1.1387  0.5839
    3PEO   H173 1775   7.455   3.641   4.998 -0.4221  2.8096  4.5981
    3PEO   O174 1776   7.273   3.601   4.910  0.1817 -0.4994  0.3481
    3PEO   H175 1777   7.283   3.801   4.863 -1.1478 -1.2446 -1.2341
    3PEO   H176 1778   7.199   3.772   5.011 -0.4551  2.9050 -0.7319
    3PEO   C177 1779   7.215   3.729   4.911 -0.7199 -0.5078  0.5490
    3PEO   C178 1780   7.079   3.734   4.842  0.1107 -0.4835  0.5613
    3PEO   H179 1781   7.016   3.647   4.867 -0.5016 -0.8511 -1.9875
    3PEO   H17A 1782   7.037   3.833   4.869  2.2851  0.7569 -0.3332
    3PEO   O17B 1783   7.107   3.729   4.700  0.7522  0.4940  0.0302
    3PEO   H17C 1784   7.015   3.770   4.517 -0.1361 -1.2932  0.3487
    3PEO   H17D 1785   7.027   3.910   4.618 -2.3402  0.7590 -1.8520
    3PEO   C17E 1786   7.012   3.801   4.623  0.5021  0.3430 -0.0848
    3PEO   C17F 1787   6.866   3.779   4.664 -0.0665  0.4864  0.0074
    3PEO   H180 1788   6.859   3.793   4.773  0.0724 -1.3376  0.2860
    3PEO   H181 1789   6.800   3.848   4.609 -2.1632  0.3733  2.2204
    3PEO   O182 1790   6.834   3.642   4.651 -0.0448  0.3811 -0.0142
    3PEO   H183 1791   6.640   3.663   4.612  1.2890  0.5155 -0.8500
    3PEO   H184 1792   6.673   3.634   4.784  0.7337 -0.0170  0.4025
    3PEO   C185 1793   6.699   3.602   4.682 -0.7758 -0.4506  0.1298
    3PEO   C186 1794   6.674   3.453   4.665 -0.0109 -0.7502  0.3303
    3PEO   H187 1795   6.730   3.380   4.726 -1.8203 -0.2818  2.6856
    3PEO   H188 1796   6.566   3.436   4.680  0.1412 -0.8455  1.3902
    3PEO   O189 1797   6.710   3.426   4.529  0.2297  0.1196 -0.0375
    3PEO   H18A 1798   6.716   3.220   4.589 -1.0598 -0.3784  0.9972
    3PEO   H18B 1799   6.768   3.252   4.420 -0.7900 -1.2803  0.0995
    3PEO   C18C 1800   6.698   3.282   4.500  0.3915 -0.2135  0.7879
    3PEO   C18D 1801   6.557   3.265   4.435  0.3292 -0.1527  0.0954
    3PEO   H18E 1802   6.537   3.348   4.367  2.5425  1.2737  1.0529
    3PEO   H18F 1803   6.546   3.166   4.388  0.4510 -0.9852  1.7435
    3PEO   O190 1804   6.457   3.259   4.538 -0.4421  0.0451 -0.3674
    3PEO   H191 1805   6.295   3.319   4.410  1.2735 -0.9641 -1.1049
    3PEO   H192 1806   6.367   3.441   4.511 -0.2453 -0.4349 -1.7167
    3PEO   C193 1807   6.335   3.336   4.511 -0.9519 -0.2421 -0.2819
    3PEO   C194 1808   6.236   3.300   4.626  0.9055 -0.8976  0.5305
    3PEO   H195 1809   6.137   3.341   4.601  0.4868 -0.6324  2.4374
    3PEO   H196 1810   6.234   3.190   4.627  1.9938 -0.9303  0.3729
    3PEO   O197 1811   6.262   3.368   4.744 -0.5261 -0.1310 -0.7416
    3PEO   H198 1812   6.440   3.279   4.791 -0.1158 -0.3239  0.7608
    3PEO   H199 1813   6.296   3.206   4.875 -0.0092 -2.0273 -2.3047
    3PEO   C19A 1814   6.344   3.298   4.841 -0.3789 -0.7502  0.4329
    3PEO   C19B 1815   6.368   3.392   4.963 -0.5719  0.7943 -0.8881
    3PEO   H19C 1816   6.435   3.341   5.033 -0.5173  2.2435  0.1632
    3PEO   H19D 1817   6.430   3.482   4.952  0.4129  0.1995 -0.3082
    3PEO   O19E 1818   6.241   3.418   5.033 -0.6629 -0.0840  0.1057
    3PEO   H19F 1819   6.222   3.599   4.956  0.4617 -0.9401  0.5733
    3PEO   H1A0 1820   6.293   3.603   5.121  1.0258  1.6671 -1.2141
    3PEO   C1A1 1821   6.218   3.555   5.057  0.1079 -0.0066  0.9759
    3PEO   C1A2 1822   6.078   3.583   5.119 -0.3738  0.0953  0.1297
    3PEO   H1A3 1823   6.049   3.689   5.121  1.2504  0.5984  3.3852
    3PEO   H1A4 1824   6.014   3.533   5.045 -1.1099  1.3892 -0.1397
    3PEO   O1A5 1825   6.082   3.538   5.254 -0.4203  0.1626  0.5591
    3PEO   H1A6 1826   5.883   3.498   5.245  0.3147 -1.4671  0.7602
    3PEO   H1A7 1827   5.919   3.663   5.289  0.3657 -0.4382 -0.5828
    3PEO   C1A8 1828   5.951   3.559   5.306 -0.5106 -0.5090  0.7608
    3PEO   C1A9 1829   5.948   3.521   5.454  1.5195 -0.5968 -0.1184
    3PEO   H1AA 1830   6.027   3.572   5.511  1.0116  0.1219 -0.0350
    3PEO   H1AB 1831   5.844   3.551   5.474  0.5742 -2.1726 -2.2631
    3PEO   O1AC 1832   5.946   3.379   5.460  0.0931 -0.0357  0.4107
    3PEO   H1AD 1833   5.847   3.357   5.641 -0.2359  0.0850  0.8618
    3PEO   H1AE 1834   6.014   3.406   5.664 -1.8147  3.3792 -0.7602
    3PEO   C1AF 1835   5.949   3.341   5.603 -0.2366 -0.0535  0.9195
    3PEO   C1B0 1836   5.993   3.193   5.625 -0.2814 -0.3778 -0.6122
    3PEO   H1B1 1837   6.080   3.165   5.563  2.0757  1.1797  1.7932
    3PEO   H1B2 1838   6.011   3.165   5.730 -2.0497  1.3348  0.1969
    3PEO   O1B3 1839   5.883   3.114   5.588  0.1503  0.1012  0.1957
    3PEO   H1B4 1840   5.988   2.931   5.611  2.1963  0.9865 -1.0193
    3PEO   H1B5 1841   5.942   2.971   5.441 -1.1276 -0.5796  0.0875
    3PEO   C1B6 1842   5.914   2.981   5.547  0.4189  0.3236  0.4303
    3PEO   C1B7 1843   5.780   2.908   5.543 -0.1728  0.0204  0.1112
    3PEO   H1B8 1844   5.694   2.975   5.532 -0.9496 -0.5933  2.0665
    3PEO   H1B9 1845   5.779   2.842   5.454 -2.3579 -0.8378  0.6974
    3PEO   O1BA 1846   5.769   2.833   5.660 -1.0931  0.5791 -0.0883
    3PEO   H1BB 1847   5.631   2.700   5.590  0.7290  2.4407 -2.3920
    3PEO   H1BC 1848   5.561   2.853   5.634 -0.0068  0.7147  0.8943
    3PEO   C1BD 1849   5.635   2.779   5.667 -0.2170  0.1612  0.1352
    3PEO   C1BE 1850   5.579   2.698   5.791 -0.7834 -0.7419  0.0317
    3PEO   H1BF 1851   5.475   2.669   5.771 -1.5080  2.3795 -1.3601
    3PEO   H1C0 1852   5.641   2.614   5.826  0.3683  0.1933  0.3261
    3PEO   O1C1 1853   5.576   2.788   5.906  0.0314 -0.0501  0.7290
    3PEO   H1C2 1854   5.502   2.673   6.056  1.2404  0.7832  1.0481
    3PEO   H1C3 1855   5.379   2.764   5.977 -0.0438 -0.0817 -0.2993
    3PEO   C1C4 1856   5.483   2.771   6.012 -0.2407  0.1660  0.2462
    3PEO   C1C5 1857   5.494   2.881   6.117  0.1776 -0.9570 -1.1033
    3PEO   H1C6 1858   5.456   2.848   6.214  0.1519  2.3306  0.1458
    3PEO   H1C7 1859   5.599   2.913   6.126  0.1328 -1.3657  1.2936
    3PEO   O1C8 1860   5.409   2.992   6.085  0.1489  0.3834  0.1538
    3PEO   H1C9 1861   5.497   3.137   6.226 -0.5059  0.1162  0.0922
    3PEO   H1CA 1862   5.374   3.027   6.285 -4.1380 -0.2367 -0.9413
    3PEO   C1CB 1863   5.401   3.089   6.199 -0.0006 -0.7446 -0.2221
    3PEO   C1CC 1864   5.297   3.204   6.156 -0.4612 -0.1913 -0.2381
    3PEO   H1CD 1865   5.202   3.160   6.121 -0.7394 -0.3999  0.7579
    3PEO   H1CE 1866   5.274   3.254   6.251  1.1839 -1.4876  0.9071
    3PEO   O1CF 1867   5.352   3.301   6.065 -0.5737  0.4773  0.0457
    3PEO   H1D0 1868   5.169   3.351   6.002  0.0740 -0.3144  1.8317
    3PEO   H1D1 1869   5.306   3.446   5.923  0.4686  0.0932  0.5109
    3PEO   C1D2 1870   5.263   3.406   6.016 -0.1268  0.4444  0.3942
    3PEO   C1D3 1871   5.249   3.522   6.113  0.3292 -0.1519 -0.2464
    3PEO   H1D4 1872   5.350   3.548   6.149 -0.0615  2.2281 -0.6651
    3PEO   H1D5 1873   5.205   3.610   6.064 -2.7143 -0.8915  1.0047
    3PEO   O1D6 1874   5.165   3.470   6.209  0.0175 -0.4130 -0.0775
    3PEO   H1D7 1875   5.145   3.659   6.296  1.8311  1.1865  1.9450
    3PEO   H1D8 1876   5.267   3.556   6.379 -0.5949  0.8918  0.0618
    3PEO   C1D9 1877   5.172   3.556   6.324 -0.3543 -0.1322 -0.3787
    3PEO   C1DA 1878   5.060   3.501   6.420  0.0200 -0.1151  0.2643
    3PEO   H1DB 1879   5.050   3.559   6.513 -1.8930  0.0613 -0.0068
    3PEO   H1DC 1880   4.964   3.508   6.366 -0.2704  1.1237  0.9077
    3PEO   O1DD 1881   5.094   3.369   6.448 -0.2492 -0.2445 -0.2973
    3PEO   H1DE 1882   4.908   3.296   6.495 -0.2656 -3.1818  0.0890
    3PEO   H1DF 1883   5.010   3.345   6.639  0.2503 -1.0499  0.3237
    3PEO   C1E0 1884   5.009   3.300   6.539 -0.2434 -0.1329 -0.0880
    3PEO   C1E1 1885   5.063   3.150   6.547 -0.1573 -0.8223  0.2612
    3PEO   H1E2 1886   4.983   3.081   6.576  1.0972 -4.1400 -3.2305
    3PEO   H1E3 1887   5.090   3.118   6.445 -1.7581 -1.7625  0.1036
    3PEO   O1E4 1888   5.172   3.137   6.641 -0.5926 -0.0569  0.4449
    3PEO   H1E5 1889   5.283   3.008   6.537  2.0768  0.8294  0.8729
    3PEO   H1E6 1890   5.150   2.930   6.623  1.2601 -1.5140  0.1435
    3PEO   C1E7 1891   5.227   3.008   6.632 -0.3397  0.2224 -0.4421
    3PEO   C1E8 1892   5.320   2.988   6.749 -0.2929 -0.1692  0.2330
    3PEO   H1E9 1893   5.391   2.905   6.740 -0.5028 -0.2643 -0.6536
    3PEO   H1EA 1894   5.384   3.075   6.764  0.2401 -0.4321 -0.4722
    3PEO   O1EB 1895   5.244   2.965   6.866 -0.1120  0.0592  1.0572
    3PEO   H1EC 1896   5.221   2.963   7.066 -2.1737  1.0424 -1.4277
    3PEO   H1ED 1897   5.320   3.088   7.005 -0.7603 -0.5148  2.3512
    3PEO   C1EE 1898   5.303   2.980   6.995 -0.8002 -0.3353 -0.2393
    3PEO   C1EF 1899   5.423   2.888   7.014 -0.3159  0.5818 -0.5593
    3PEO   H1F0 1900   5.429   2.839   7.112  3.8904  1.8138  0.0104
    3PEO   H1F1 1901   5.434   2.813   6.935  0.6245  0.4048 -0.2790
    3PEO   O1F2 1902   5.540   2.967   7.008 -0.0176  0.6144 -0.3138
    3PEO   H1F3 1903   5.669   2.813   6.923 -0.1775 -1.7359  1.3677
    3PEO   H1F4 1904   5.670   2.848   7.104 -1.6899  1.1675  0.3775
    3PEO   C1F5 1905   5.664   2.890   7.002  0.4765  0.0711 -0.2557
    3PEO   C1F6 1906   5.783   2.988   6.991 -0.2431 -0.1371 -0.5077
    3PEO   H1F7 1907   5.777   3.070   7.065 -0.6929 -1.0340  0.4725
    3PEO   H1F8 1908   5.872   2.934   7.023  2.0449  2.5585 -1.8780
    3PEO   O1F9 1909   5.804   3.028   6.860  0.2859 -0.5489  0.2045
    3PEO   H1FA 1910   5.992   3.058   6.792 -1.7063 -2.2818 -1.2713
    3PEO   H1FB 1911   5.963   3.153   6.941 -1.5220 -1.3555  1.7448
    3PEO   C1FC 1912   5.918   3.118   6.846  0.6924 -0.5917  0.3322
    3PEO   C1FD 1913   5.881   3.244   6.765 -0.1006  0.2604  0.0915
    3PEO   H1FE 1914   5.967   3.293   6.717 -1.1182  0.2390 -1.8546
    3PEO   H1FF 1915   5.812   3.215   6.684 -0.7753 -0.6623  0.9810
    3PEO   O200 1916   5.809   3.329   6.852  1.0174 -0.6160 -0.8549
    3PEO   H201 1917   5.667   3.383   6.716  0.9430  0.4037 -1.0261
    3PEO   H202 1918   5.799   3.504   6.726 -1.3910  1.8253  0.7123
    3PEO   C203 1919   5.732   3.439   6.785  0.1929 -0.3024  0.3059
    3PEO   C204 1920   5.642   3.522   6.879 -0.9370  0.3278 -0.0108
    3PEO   H205 1921   5.571   3.582   6.821 -0.9476  0.7096  0.3913
    3PEO   H206 1922   5.586   3.461   6.952  0.3874  1.3935  1.9827
    3PEO   O207 1923   5.730   3.607   6.952 -0.0108  0.0710  0.3596
    3PEO   H208 1924   5.603   3.691   7.097 -1.5386 -0.4782 -0.5154
    3PEO   H209 1925   5.607   3.777   6.939  1.3305  1.7368  0.2669
    3PEO   C20A 1926   5.667   3.722   7.013 -0.5438 -0.5829  0.1852
    3PEO   C20B 1927   5.792   3.807   7.058  0.9963 -0.5035  0.5131
    3PEO   H20C 1928   5.861   3.819   6.974  0.8712  0.8593  0.5876
    3PEO   H20D 1929   5.745   3.901   7.091 -2.8981 -1.9494 -0.3786
    3PEO   O20E 1930   5.850   3.734   7.164 -0.2136  0.2681  0.0649
    3PEO   H20F 1931   5.967   3.905   7.189 -1.6312  0.6107 -0.8833
    3PEO   H210 1932   6.060   3.763   7.206  0.1054  2.4361 -2.0937
    3PEO   C211 1933   5.961   3.803   7.229 -0.0352  0.9106  0.2185
    3PEO   C212 1934   5.940   3.821   7.376  0.4990 -0.7010 -0.2579
    3PEO   H213 1935   5.938   3.728   7.435  2.0491 -0.1681  0.7108
    3PEO   H214 1936   6.032   3.869   7.413 -0.4087  0.6406  0.3483
    3PEO   O215 1937   5.821   3.905   7.403  0.6264  0.3988  0.6624
    3PEO   H216 1938   5.713   3.750   7.491  0.1293  0.0586  0.2176
    3PEO   H217 1939   5.674   3.788   7.315 -2.3102 -0.0981 -0.2148
    3PEO   C218 1940   5.705   3.828   7.413  0.3402 -0.8046 -0.6905
    3PEO   C219 1941   5.581   3.918   7.433  0.9369 -0.0704  0.9470
    3PEO   H21A 1942   5.492   3.855   7.448  0.5518  0.4874  1.0210
    3PEO   H21B 1943   5.587   3.984   7.520  2.0821  2.0820 -0.6883
    3PEO   O21C 1944   5.549   3.998   7.316 -0.4261  0.5814  0.0823
    3PEO   H21D 1945   5.462   4.146   7.425 -0.2505  2.2084 -0.7055
    3PEO   H21E 1946   5.357   4.056   7.315  1.0942 -0.2729  0.3543
    3PEO   C21F 1947   5.457   4.103   7.325  1.0193 -0.0644  0.1329
    3PEO   C220 1948   5.469   4.206   7.205 -0.2616 -0.1326 -0.1931
    3PEO   H221 1949   5.406   4.295   7.218 -1.7943 -0.5439 -3.7109
    3PEO   H222 1950   5.572   4.244   7.196  0.6360 -2.0314  1.4036
    3PEO   O223 1951   5.422   4.153   7.079  0.4659 -0.1605  0.0867
    3PEO   H224 1952   5.481   3.959   7.075 -0.8402  0.0187 -1.6511
    3PEO   H225 1953   5.606   4.074   7.026  0.7027  0.2827 -2.2761
    3PEO   C226 1954   5.499   4.052   7.019  0.5260  0.4647 -0.5362
    3PEO   C227 1955   5.447   4.033   6.878  0.4959  0.1878 -1.0539
    3PEO   H228 1956   5.415   4.130   6.836  1.8408  1.4206  0.6588
    3PEO   H229 1957   5.536   4.014   6.816 -1.2495 -2.4177 -2.9694
    3PEO   O22A 1958   5.362   3.919   6.869  0.7704 -0.4995  0.0825
    3PEO   H22B 1959   5.164   3.997   6.834 -0.7253 -1.5498 -1.5226
    3PEO   H22C 1960   5.230   4.007   6.991 -1.2639  1.1602 -0.3095
    3PEO   C22D 1961   5.229   3.941   6.903 -0.0788  0.8088 -0.0818
    3PEO   C22E 1962   5.149   3.811   6.925  0.2865 -0.1019  0.0653
    3PEO   H22F 1963   5.199   3.753   7.004 -2.2234 -2.5245  0.0352
    3PEO   H230 1964   5.056   3.839   6.975  0.3143  0.4758 -0.1978
    3PEO   O231 1965   5.127   3.746   6.805 -0.2898 -0.1011  0.0118
    3PEO   H232 1966   5.161   3.560   6.877 -0.0275 -0.8221 -1.2428
    3PEO   H233 1967   5.094   3.553   6.727 -0.7305 -3.1813  1.3378
    3PEO   C234 1968   5.083   3.611   6.820  0.3700  0.5240 -0.6246
    3PEO   C235 1969   4.944   3.610   6.893  0.5960 -0.0172  0.0643
    3PEO   H236 1970   4.915   3.505   6.906 -0.2703 -0.1099 -2.1733
    3PEO   H237 1971   4.947   3.660   6.992 -1.8649  0.6922 -0.1568
    3PEO   O238 1972   4.840   3.675   6.821  0.5187 -0.2276 -0.4503
    3PEO   H239 1973   4.639   3.744   6.829  1.4169 -1.1101 -1.7361
    3PEO   H23A 1974   4.757   3.781   6.970 -0.7304 -0.4114  0.4681
    3PEO   C23B 1975   4.720   3.710   6.894  0.4142 -0.4543 -0.0737
    3PEO   C23C 1976   4.671   3.587   6.983  0.0367  0.4884  0.1718
    3PEO   H23D 1977   4.751   3.541   7.043 -0.2754  1.3997  1.3455
    3PEO   H23E 1978   4.612   3.632   7.065  1.2341  2.2799  0.1033
    3PEO   O23F 1979   4.593   3.490   6.900 -0.3313 -0.0404  0.1147
    3PEO   H240 1980   4.632   3.323   7.028 -1.8471  0.9018  3.7683
    3PEO   H241 1981   4.535   3.300   6.878  0.8548 -0.7867 -0.5593
    3PEO   C242 1982   4.556   3.367   6.962  0.2729 -0.9175 -0.3100
    3PEO   C243 1983   4.427   3.382   7.044 -0.3465  0.0490 -0.0941
    3PEO   H244 1984   4.396   3.284   7.084 -2.3685  1.0913  1.0547
    3PEO   H245 1985   4.439   3.446   7.132  0.9088 -0.7553  0.3378
    3PEO   O246 1986   4.324   3.425   6.952 -0.9731  0.0197 -0.3234
    3PEO   H247 1987   4.385   3.634   6.976 -1.8304  1.3917  0.7739
    3PEO   H248 1988   4.226   3.603   7.027  3.1681  2.0311  1.7699
    3PEO   C249 1989   4.298   3.571   6.950 -0.1402 -0.5263 -0.5970
    3PEO   C24A 1990   4.248   3.624   6.815 -0.3469  0.1800  0.4593
    3PEO   H24B 1991   4.254   3.734   6.811  0.6543  0.1733  1.3000
    3PEO   H24C 1992   4.313   3.585   6.736  0.7689 -0.7593  1.7787
    3PEO   O24D 1993   4.117   3.574   6.814 -1.0371 -0.3521 -1.0136
    3PEO   H24E 1994   4.040   3.528   6.612 -2.3807  1.0747 -2.0955
    3PEO   H24F 1995   4.063   3.693   6.650 -3.9468 -0.1309 -1.2216
    3PEO   C250 1996   4.037   3.597   6.697  0.4605 -0.9969 -0.0953
    3PEO   C251 1997   3.894   3.607   6.748  0.4355 -0.2772 -0.3662
    3PEO   H252 1998   3.887   3.666   6.840  1.0938 -0.1449 -0.3974
    3PEO   H253 1999   3.843   3.662   6.667  1.0020 -1.2261 -1.4022
    3PEO   O254 2000   3.846   3.480   6.758  0.2081  0.3131  0.3240
    3PEO   H255 2001   3.648   3.531   6.695 -0.8463 -0.5700 -0.7655
    3PEO   H256 2002   3.672   3.544   6.864 -1.7402  0.0930 -0.9059
    3PEO   C257 2003   3.699   3.481   6.778 -0.4848  0.1412 -0.5544
    3PEO   C258 2004   3.646   3.337   6.804 -0.2967  0.8752  0.2001
    3PEO   H259 2005   3.715   3.270   6.857 -0.6290  0.5220  0.1866
    3PEO   H25A 2006   3.547   3.323   6.849 -0.5485  2.5764  0.2464
    3PEO   O25B 2007   3.635   3.282   6.675 -0.3293  0.0616 -0.1447
    3PEO   H25C 2008   3.791   3.130   6.694 -0.4223 -0.4463  0.8818
    3PEO   H25D 2009   3.822   3.296   6.623  0.0768  0.8812  1.3888
    3PEO   C25E 2010   3.753   3.210   6.629  1.2997 -0.2567  0.0414
    3PEO   C25F 2011   3.721   3.162   6.491  0.1151  0.3083  0.3933
    3PEO   H260 2012   3.657   3.227   6.430 -2.9149 -2.6902  0.0908
    3PEO   H261 2013   3.816   3.154   6.436 -1.3880 -1.7125 -2.1263
    3PEO   O262 2014   3.664   3.028   6.496 -0.1561 -0.4922  0.3995
    3PEO   H263 2015   3.468   3.078   6.511 -0.3279 -0.8373 -0.7374
    3PEO   H264 2016   3.553   3.036   6.670 -2.2263  0.1059  0.5271
    3PEO   C265 2017   3.539   3.012   6.564  0.3506  0.4719  0.0402
    3PEO   C266 2018   3.495   2.865   6.523  0.5903  0.4235 -0.4598
    3PEO   H267 2019   3.386   2.860   6.509  0.5596 -1.1850  0.1762
    3PEO   H268 2020   3.549   2.841   6.430 -0.0690 -0.3076 -0.6628
    3PEO   O269 2021   3.537   2.780   6.634  0.0349  0.6345 -0.8058
    3PEO   H26A 2022   3.356   2.769   6.719  0.0369  1.0288 -2.8247
    3PEO   H26B 2023   3.475   2.877   6.808 -1.9425  0.2260 -1.0412
    3PEO   C26C 2024   3.460   2.785   6.750 -0.3912 -0.4859 -0.3642
    3PEO   C26D 2025   3.492   2.659   6.837  0.1027  0.0346 -1.1863
    3PEO   H26E 2026   3.580   2.687   6.896  1.4088  1.8654 -3.7925
    3PEO   H26F 2027   3.403   2.647   6.901  2.0954  1.5000  2.0907
    3PEO   O270 2028   3.514   2.544   6.749 -0.8909  0.1047 -0.6040
    3PEO   H271 2029   3.409   2.442   6.594 -0.6715  1.2522 -0.7939
    3PEO   H272 2030   3.307   2.545   6.688  1.8247  2.0492  0.1460
    3PEO   C273 2031   3.393   2.478   6.697  0.1838 -0.2337 -0.1081
    3PEO   C274 2032   3.352   2.359   6.787 -0.1285  0.2908  0.1432
    3PEO   H275 2033   3.268   2.306   6.739 -0.0923 -1.6001  2.0030
    3PEO   H276 2034   3.444   2.299   6.790 -1.6230 -2.1568 -0.0298
    3PEO   O277 2035   3.308   2.388   6.918  0.4957  0.2451  0.5136
    3PEO   H278 2036   3.221   2.197   6.944 -1.6525  1.4031 -0.1754
    3PEO   H279 2037   3.206   2.304   7.085  1.8550 -0.8653  1.8410
    3PEO   C27A 2038   3.272   2.276   7.001  0.2607 -0.0605  0.2623
    3PEO   C27B 2039   3.390   2.200   7.055 -0.0094  0.3265  0.0579
    3PEO   H27C 2040   3.465   2.277   7.079  1.5958 -0.3007 -2.4722
    3PEO   H27D 2041   3.348   2.152   7.144 -0.1078 -1.7905 -1.0638
    3PEO   O27E 2042   3.456   2.112   6.949  1.0293 -0.2967 -0.6197
    3PEO   H27F 2043   3.331   1.940   6.971 -0.1909  0.7790  1.1827
    3PEO   H280 2044   3.477   1.949   7.078  0.9186  0.7189  0.7024
    3PEO   C281 2045   3.436   1.970   6.978  0.3453 -0.8597  0.5735
    3PEO   C282 2046   3.528   1.895   6.877 -0.1479  0.1682  0.2070
    3PEO   H283 2047   3.624   1.948   6.870  0.5656 -1.2428 -1.3086
    3PEO   H284 2048   3.545   1.788   6.898 -0.9402 -0.4196 -1.8800
    3PEO   O285 2049   3.478   1.900   6.740 -0.1154 -0.6547 -0.4260
    3PEO   H286 2050   3.599   2.047   6.648 -0.6255  1.9613  0.8700
    3PEO   H287 2051   3.449   2.114   6.706 -1.1406  0.0803 -0.4291
    3PEO   C288 2052   3.494   2.022   6.665 -0.4905  0.3613 -0.3575
    3PEO   C289 2053   3.439   2.002   6.528  0.1946  0.0845  0.0403
    3PEO   H28A 2054   3.486   2.068   6.453  1.8403 -1.2749 -0.1747
    3PEO   H28B 2055   3.461   1.899   6.497  1.6678  0.4384 -0.1792
    3PEO   O28C 2056   3.291   2.014   6.531 -0.0112  0.0237 -0.3813
    3PEO   H28D 2057   3.243   1.817   6.488 -0.4100  1.2420  2.8903
    3PEO   H28E 2058   3.264   1.914   6.349 -1.1484 -0.9536 -0.2219
    3PEO   C28F 2059   3.222   1.919   6.451  0.1185  0.4719  0.2687
    3PEO   C290 2060   3.073   1.940   6.433  0.4558  0.5150 -0.0706
    3PEO   H291 2061   3.043   1.848   6.381 -2.1298 -1.1526  3.8771
    3PEO   H292 2062   3.025   1.953   6.531  0.3514  2.3890 -0.3434
    3PEO   O293 2063   3.050   2.046   6.356 -0.7012 -0.2274 -0.4494
    3PEO   H294 2064   2.891   2.096   6.467  2.3948 -2.0320  0.3225
    3PEO   H295 2065   2.851   2.020   6.309 -0.2054  0.5530 -0.9257
    3PEO   C296 2066   2.917   2.092   6.361  0.1030 -0.0916 -0.4021
    3PEO   C297 2067   2.893   2.220   6.271 -0.2019  0.8386  0.0489
    3PEO   H298 2068   2.785   2.220   6.254 -0.0656 -3.2362 -2.2075
    3PEO   H299 2069   2.939   2.303   6.327  2.1018 -0.0633 -0.3565
    3PEO   O29A 2070   2.942   2.200   6.132 -0.4231 -0.8656 -0.4371
    3PEO   H29B 2071   2.787   2.329   6.064  1.5748  2.2937  0.6370
    3PEO   H29C 2072   2.879   2.245   5.937 -1.2903  0.6984 -1.4220
    3PEO   C29D 2073   2.887   2.293   6.035  0.2313 -0.5646 -0.8863
    3PEO   C29E 2074   2.981   2.418   6.017  0.5137  0.0118 -0.1353
    3PEO   H29F 2075   3.090   2.409   6.008  0.4826 -0.9330  0.3134
    3PEO   H2A0 2076   2.976   2.458   5.914  0.4689 -0.9882 -0.5346
    3PEO   O2A1 2077   2.934   2.504   6.125  0.5729  0.0244 -0.0364
    3PEO   H2A2 2078   2.898   2.665   6.021 -1.6668 -1.8220  0.3011
    3PEO   H2A3 2079   3.073   2.652   6.087 -0.3587 -3.6097 -1.5863
    3PEO   C2A4 2080   2.965   2.643   6.105 -0.5079 -0.2967 -0.1754
    3PEO   C2A5 2081   2.917   2.716   6.233 -0.3393  0.8664  0.2918
    3PEO   H2A6 2082   2.897   2.823   6.217  1.8502  1.5179  1.5431
    3PEO   H2A7 2083   2.827   2.668   6.274  0.1154 -1.1141 -0.8343
    3PEO   O2A8 2084   3.015   2.692   6.340 -0.1900 -0.4625 -0.2921
    3PEO   H2A9 2085   2.868   2.705   6.488  0.7290 -2.2978  0.3610
    3PEO   H2AA 2086   2.995   2.850   6.461  0.1963  0.0969  2.5797
    3PEO   C2AB 2087   2.969   2.743   6.468  0.0227 -0.0057  0.8350
    3PEO   C2AC 2088   3.064   2.682   6.576 -0.1714 -0.6587 -0.1209
    3PEO   H2AD 2089   3.163   2.665   6.532  0.6613  0.5074  1.1949
    3PEO   H2AE 2090   3.065   2.752   6.661 -0.8092 -1.2837  0.4152
    3PEO   O2AF 2091   3.008   2.566   6.634  0.2203 -0.0555  0.0444
    3PEO   H2B0 2092   3.113   2.432   6.525  0.2802 -0.3572  0.5817
    3PEO   H2B1 2093   2.950   2.456   6.461 -0.9317  0.7250  0.2601
    3PEO   C2B2 2094   3.009   2.448   6.554  0.0219 -0.1842 -0.4001
    3PEO   C2B3 2095   2.966   2.332   6.651  0.4084 -0.6222 -0.2003
    3PEO   H2B4 2096   2.982   2.231   6.609  1.0405 -0.5447 -0.1516
    3PEO   H2B5 2097   3.011   2.350   6.750  0.1675 -0.6320 -0.0893
    3PEO   O2B6 2098   2.826   2.341   6.669  0.5735  0.3753 -0.1584
    3PEO   H2B7 2099   2.825   2.269   6.863 -1.9799  1.0510  2.1243
    3PEO   H2B8 2100   2.797   2.142   6.748  0.9878 -0.5370  3.7250
    3PEO   C2B9 2101   2.769   2.246   6.771 -0.0415 -0.1695  1.1765
    3PEO   C2BA 2102   2.614   2.260   6.790 -0.2535  0.1504 -0.4474
    3PEO   H2BB 2103   2.590   2.243   6.896  0.3654 -3.0614 -0.7133
    3PEO   H2BC 2104   2.585   2.365   6.773 -0.2416  0.4539  1.2705
    3PEO   O2BD 2105   2.539   2.176   6.701  0.5352  0.4076 -0.2326
    3PEO   H2BE 2106   2.540   2.202   6.608 -2.3139  0.2313 -0.3983
    4PEO   H001 2107   0.814   3.151   5.668  2.5186 -0.9617 -0.3107
    4PEO   H002 2108   0.896   3.032   5.750 -0.0589  0.2102  0.8216
    4PEO   H003 2109   0.728   2.994   5.706 -1.8650  1.1308  2.0974
    4PEO   C004 2110   0.794   3.074   5.744  0.0298  0.3863  0.5251
    4PEO   C005 2111   0.734   3.133   5.869 -0.3828  0.3965  0.0378
    4PEO   H006 2112   0.641   3.185   5.842 -0.1664  0.8265  0.1062
    4PEO   H007 2113   0.711   3.058   5.945 -0.8103  0.6134  0.1259
    4PEO   O008 2114   0.831   3.225   5.908  0.4080 -0.5956 -0.3827
    4PEO   H009 2115   1.027   3.270   5.959  0.2209  0.2178  0.6428
    4PEO   H00A 2116   1.012   3.106   5.907  2.5705  0.1639  1.8313
    4PEO   C00B 2117   0.958   3.184   5.962  0.2356  0.1571 -0.2599
    4PEO   C00C 2118   0.945   3.151   6.119 -0.0635  0.9279 -0.2532
    4PEO   H00D 2119   1.044   3.144   6.166 -0.3444 -0.5633  0.1696
    4PEO   H00E 2120   0.881   3.231   6.160 -1.5355  0.8653 -2.2338
    4PEO   O00F 2121   0.881   3.023   6.138 -0.0567  0.6999 -0.8301
    4PEO   H010 2122   0.782   2.900   6.279 -2.4356  1.0179  0.3902
    4PEO   H011 2123   0.772   3.082   6.305  2.4626  0.7545  1.1389
    4PEO   C012 2124   0.835   2.996   6.275  0.5192 -0.4850  0.3842
    4PEO   C013 2125   0.966   2.994   6.362 -0.6196  0.3573 -0.1458
    4PEO   H014 2126   1.010   3.094   6.363 -1.9887  1.0349 -2.0437
    4PEO   H015 2127   0.950   2.947   6.461 -1.8272 -2.7976 -1.7033
    4PEO   O016 2128   1.055   2.901   6.301 -0.0713  0.0953  0.8829
    4PEO   H017 2129   1.211   2.895   6.448 -2.9477 -0.8052  1.0964
    4PEO   H018 2130   1.235   3.012   6.317 -0.7872  0.1633  1.6587
    4PEO   C019 2131   1.196   2.912   6.340 -0.2943 -0.2550  0.7468
    4PEO   C01A 2132   1.273   2.801   6.263 -0.2484 -0.3206 -0.4776
    4PEO   H01B 2133   1.366   2.789   6.320 -0.0249  0.0395 -0.7667
    4PEO   H01C 2134   1.215   2.709   6.279 -1.6600  0.5347 -0.5311
    4PEO   O01D 2135   1.305   2.841   6.128  0.2714  0.5116 -0.0556
    4PEO   H01E 2136   1.127   2.936   6.066 -1.2097 -1.1540 -0.4078
    4PEO   H01F 2137   1.152   2.773   6.005 -0.9640  0.6634 -3.4121
    4PEO   C020 2138   1.205   2.866   6.033 -0.4321 -0.5580  0.1052
    4PEO   C021 2139   1.279   2.910   5.906 -0.0399 -0.5918 -0.3229
    4PEO   H022 2140   1.227   2.985   5.845  2.5440 -0.0883 -2.0173
    4PEO   H023 2141   1.374   2.956   5.936 -0.7396 -1.3794  3.6773
    4PEO   O024 2142   1.302   2.793   5.837  0.2605 -0.5087  0.0181
    4PEO   H025 2143   1.424   2.716   5.697  0.2422  0.0801  0.4554
    4PEO   H026 2144   1.422   2.895   5.692  2.0665 -2.1744  0.2231
    4PEO   C027 2145   1.360   2.806   5.707 -0.4937 -0.4575  0.6330
    4PEO   C028 2146   1.251   2.810   5.596  0.1573 -0.1414  0.4537
    4PEO   H029 2147   1.155   2.848   5.635  0.9983  1.1658  1.3244
    4PEO   H02A 2148   1.286   2.875   5.514 -0.5550  0.6125  0.7306
    4PEO   O02B 2149   1.203   2.677   5.577  0.3678  0.3235 -0.5519
    4PEO   H02C 2150   1.285   2.653   5.380  0.2392  1.9724  1.4093
    4PEO   H02D 2151   1.121   2.702   5.386 -1.8884  0.1651  1.8809
    4PEO   C02E 2152   1.193   2.636   5.437 -0.1639  0.8369  0.4397
    4PEO   C02F 2153   1.159   2.492   5.411  0.7232  0.3460  0.3660
    4PEO   H030 2154   1.187   2.451   5.313  1.4387 -0.6853  0.9892
    4PEO   H031 2155   1.224   2.432   5.476  0.7596 -1.7778 -1.5268
    4PEO   O032 2156   1.023   2.453   5.434  0.4524  0.0556 -0.2220
    4PEO   H033 2157   1.057   2.244   5.437  0.2815 -0.1680 -0.8956
    4PEO   H034 2158   1.020   2.315   5.283  3.6200 -2.2031  0.9339
    4PEO   C035 2159   0.990   2.317   5.389 -0.0698  0.1404  0.0268
    4PEO   C036 2160   0.834   2.280   5.413 -0.7960 -0.0552  0.3651
    4PEO   H037 2161   0.806   2.174   5.421 -2.8876  0.3908 -0.4832
    4PEO   H038 2162   0.786   2.327   5.499 -3.8636  1.3702 -1.9261
    4PEO   O039 2163   0.771   2.344   5.298  0.8132  0.0782 -0.1848
    4PEO   H03A 2164   0.591   2.423   5.260  1.3275  0.1672 -0.2737
    4PEO   H03B 2165   0.593   2.327   5.399  4.1233  1.8919  1.5542
    4PEO   C03C 2166   0.632   2.327   5.296  0.3716 -0.1635 -0.0413
    4PEO   C03D 2167   0.585   2.203   5.214  0.2324  0.1174 -0.3235
    4PEO   H03E 2168   0.633   2.110   5.247 -1.6571  0.0997  2.7875
    4PEO   H03F 2169   0.476   2.196   5.229  0.4194 -1.1262  0.5742
    4PEO   O040 2170   0.597   2.242   5.072 -0.2956  0.8182  0.1468
    4PEO   H041 2171   0.450   2.109   5.029 -0.5824  3.6276  1.2309
    4PEO   H042 2172   0.611   2.048   4.973  0.8591  0.7754  1.1848
    4PEO   C043 2173   0.548   2.137   4.986 -0.4690  0.2582 -1.1128
    4PEO   C044 2174   0.540   2.197   4.842  0.0870 -0.7536 -0.1495
    4PEO   H045 2175   0.630   2.259   4.832  0.3739 -0.8121  1.7871
    4PEO   H046 2176   0.529   2.115   4.770  1.5230 -0.3790 -0.8278
    4PEO   O047 2177   0.423   2.279   4.827 -0.1114  0.6895  0.9404
    4PEO   H048 2178   0.419   2.244   4.612 -0.9655  1.1289 -0.6816
    4PEO   H049 2179   0.499   2.390   4.666 -0.2362  0.2806 -2.9911
    4PEO   C04A 2180   0.416   2.322   4.689  0.2865  0.5457 -0.0154
    4PEO   C04B 2181   0.290   2.406   4.674 -0.5223  0.3076  0.3384
    4PEO   H04C 2182   0.294   2.470   4.763  2.4434 -0.7487  1.0536
    4PEO   H04D 2183   0.297   2.470   4.584  2.0542 -2.2488 -1.4786
    4PEO   O04E 2184   0.172   2.315   4.675 -0.5531 -0.4823 -0.0814
    4PEO   H04F 2185   0.022   2.453   4.725 -2.6796 -0.8058  0.0777
    4PEO   H050 2186  -0.040   2.302   4.669  1.0407  0.3662  0.9599
    4PEO   C051 2187   0.040   2.375   4.650  0.6228  0.4319 -0.6203
    4PEO   C052 2188   0.019   2.436   4.515  0.3654  0.1002  0.0865
    4PEO   H053 2189  -0.079   2.484   4.503  1.0855  1.6359  0.0878
    4PEO   H054 2190   0.090   2.519   4.500 -0.6068  1.2044  1.3512
    4PEO   O055 2191   0.041   2.334   4.420 -0.2501 -0.1892  0.5900
    4PEO   H056 2192   0.067   2.490   4.298 -1.5689  1.1637 -0.0896
    4PEO   H057 2193  -0.076   2.395   4.258 -0.2177 -0.0479  0.0171
    4PEO   C058 2194   0.028   2.387   4.295 -0.3117  0.6410  0.4367
    4PEO   C059 2195   0.107   2.306   4.193  0.8396  0.0080 -0.2394
    4PEO   H05A 2196   0.078   2.202   4.212 -1.7680  1.0289  2.0310
    4PEO   H05B 2197   0.072   2.337   4.094 -0.9685  0.3087  0.4558
    4PEO   O05C 2198   0.244   2.337   4.210 -0.2178 -0.2569  0.2484
    4PEO   H05D 2199   0.318   2.158   4.321  0.1486  1.2117  0.6262
    4PEO   H05E 2200   0.296   2.320   4.398  1.1586  0.5325  0.1430
    4PEO   C05F 2201   0.323   2.267   4.306  0.1854  1.0723 -0.4714
    4PEO   C060 2202   0.462   2.302   4.273  0.5654 -0.3223  0.1084
    4PEO   H061 2203   0.524   2.217   4.306 -2.2997 -2.3292  0.6746
    4PEO   H062 2204   0.484   2.309   4.165 -3.3294 -2.4268 -0.9985
    4PEO   O063 2205   0.492   2.423   4.354 -0.0343 -0.1536 -0.4990
    4PEO   H064 2206   0.324   2.552   4.316 -0.2355  0.0286  0.2379
    4PEO   H065 2207   0.463   2.554   4.201  2.4083 -0.3062  0.2382
    4PEO   C066 2208   0.434   2.547   4.307 -0.2794  0.1806 -0.3956
    4PEO   C067 2209   0.497   2.665   4.386 -0.3881 -0.1316  0.4710
    4PEO   H068 2210   0.606   2.665   4.379 -0.1990  0.2606  2.7147
    4PEO   H069 2211   0.480   2.763   4.340  1.1119  0.8085  1.8334
    4PEO   O06A 2212   0.459   2.666   4.524  0.3377  0.3072  0.9722
    4PEO   H06B 2213   0.436   2.861   4.578 -0.9666 -1.0112  0.9405
    4PEO   H06C 2214   0.614   2.796   4.571 -0.0172  1.4437  1.8244
    4PEO   C06D 2215   0.509   2.780   4.596 -0.1054 -0.3619  0.4997
    4PEO   C06E 2216   0.483   2.743   4.741  0.0728  0.1161 -0.3196
    4PEO   H06F 2217   0.484   2.839   4.796 -2.5234 -0.7422  1.3827
    4PEO   H070 2218   0.383   2.698   4.745 -0.3626  0.9498 -1.2923
    4PEO   O071 2219   0.587   2.657   4.784  0.3217  0.3926 -0.3322
    4PEO   H072 2220   0.502   2.501   4.890  0.5416 -0.2022 -1.9769
    4PEO   H073 2221   0.498   2.650   4.975 -3.5495 -1.4473 -1.7826
    4PEO   C074 2222   0.565   2.588   4.914 -0.4478  0.0643 -0.1669
    4PEO   C075 2223   0.698   2.545   4.977 -0.1295  0.4663  0.2246
    4PEO   H076 2224   0.664   2.481   5.060  1.1404  0.5844  0.8584
    4PEO   H077 2225   0.759   2.496   4.900  1.8683  2.4722  0.4250
    4PEO   O078 2226   0.759   2.664   5.027 -0.6749 -0.4799 -0.2139
    4PEO   H079 2227   0.954   2.607   5.061  0.1498 -1.2668  0.5911
    4PEO   H07A 2228   0.841   2.558   5.172 -1.4992 -1.4522 -2.7464
    4PEO   C07B 2229   0.864   2.647   5.111 -0.1887 -0.3229 -0.7142
    4PEO   C07C 2230   0.889   2.773   5.186  0.2120  0.4673 -0.9123
    4PEO   H07D 2231   0.805   2.837   5.155  0.7238  0.9599 -1.3081
    4PEO   H07E 2232   0.919   2.731   5.283 -1.7466 -1.0551 -0.9176
    4PEO   O07F 2233   0.999   2.812   5.106 -0.3433  0.0074 -0.3906
    4PEO   H080 2234   1.048   2.921   5.275  0.6088  3.9227  1.2972
    4PEO   H081 2235   1.004   3.016   5.133  1.3334  0.0804 -2.3551
    4PEO   C082 2236   1.056   2.925   5.166 -0.7617 -0.1115  0.8799
    4PEO   C083 2237   1.209   2.930   5.132 -0.0166 -0.9288  0.3180
    4PEO   H084 2238   1.228   2.871   5.041 -3.2566 -0.4401 -0.7955
    4PEO   H085 2239   1.259   3.028   5.134 -0.1495 -0.8557  2.6850
    4PEO   O086 2240   1.277   2.859   5.227 -0.2022  0.5961 -1.0722
    4PEO   H087 2241   1.453   2.814   5.137 -1.0113  0.5053 -0.4231
    4PEO   H088 2242   1.455   2.789   5.316 -1.4470  1.1763  0.6269
    4PEO   C089 2243   1.422   2.855   5.235 -0.1883  0.7620 -0.2619
    4PEO   C08A 2244   1.496   2.991   5.264  0.3262 -1.1272 -0.1008
    4PEO   H08B 2245   1.589   2.994   5.205 -1.6310  2.2400 -3.4212
    4PEO   H08C 2246   1.431   3.074   5.233  1.0864  0.7178  2.8289
    4PEO   O08D 2247   1.526   3.010   5.405 -0.4189 -0.3347  0.5643
    4PEO   H08E 2248   1.520   3.196   5.512  2.9147  0.1330  2.1005
    4PEO   H08F 2249   1.568   3.205   5.345  0.9294  2.3280  0.6493
    4PEO   C090 2250   1.578   3.143   5.435  0.2664  0.6138 -0.3987
    4PEO   C091 2251   1.728   3.126   5.468  0.2694  0.1028 -0.3308
    4PEO   H092 2252   1.745   3.023   5.434 -3.4332 -0.6663 -0.3104
    4PEO   H093 2253   1.789   3.184   5.397 -0.2269 -0.4771 -1.2583
    4PEO   O094 2254   1.744   3.149   5.612  0.5915 -0.0518 -0.5069
    4PEO   H095 2255   1.717   2.943   5.663 -1.1178 -0.0680 -0.3533
    4PEO   H096 2256   1.574   3.032   5.672 -0.3609 -1.4916  1.7325
    4PEO   C097 2257   1.682   3.043   5.690 -0.1775  0.2076 -0.1073
    4PEO   C098 2258   1.698   3.088   5.840  0.2224 -0.8870  0.0038
    4PEO   H099 2259   1.677   3.009   5.914 -0.3774  1.3105  2.3058
    4PEO   H09A 2260   1.805   3.107   5.854 -0.0724  0.1104  1.0428
    4PEO   O09B 2261   1.611   3.202   5.864 -0.1119  0.2851 -1.0183
    4PEO   H09C 2262   1.562   3.146   6.047 -2.3471 -0.4451 -1.0412
    4PEO   H09D 2263   1.507   3.308   6.013  0.3146  0.7713  1.6428
    4PEO   C09E 2264   1.593   3.241   6.002 -0.4308 -0.0790  0.8757
    4PEO   C09F 2265   1.727   3.287   6.066 -0.4604 -0.3934  0.5946
    4PEO   H0A0 2266   1.717   3.276   6.175  1.0459 -2.5680  0.5844
    4PEO   H0A1 2267   1.807   3.218   6.034  2.2403  2.8496 -0.3167
    4PEO   O0A2 2268   1.742   3.422   6.023  0.2058 -0.4163 -0.0347
    4PEO   H0A3 2269   1.893   3.489   6.150  0.0578  2.5647  2.3412
    4PEO   H0A4 2270   1.727   3.536   6.189  1.6188 -1.0334  1.9230
    4PEO   C0A5 2271   1.798   3.524   6.106 -0.0008  0.1551  0.2853
    4PEO   C0A6 2272   1.822   3.654   6.020  0.4909 -0.0498 -0.2842
    4PEO   H0A7 2273   1.812   3.632   5.913  0.4498 -2.9575  0.2425
    4PEO   H0A8 2274   1.754   3.731   6.060  0.7115 -0.3563  0.7261
    4PEO   O0A9 2275   1.960   3.695   6.042 -0.0896 -0.5612 -0.1934
    4PEO   H0AA 2276   1.936   3.884   5.950  2.1485  2.2987 -1.2777
    4PEO   H0AB 2277   1.994   3.741   5.848 -0.2253 -0.2315  1.2632
    4PEO   C0AC 2278   1.998   3.793   5.945 -0.3019  0.3739  0.9483
    4PEO   C0AD 2279   2.145   3.845   5.969  0.8061  1.0074  0.1027
    4PEO   H0AE 2280   2.197   3.754   6.000 -3.1366 -1.2987  0.6184
    4PEO   H0AF 2281   2.182   3.884   5.873 -2.1366  0.7305 -1.2419
    4PEO   O0B0 2282   2.144   3.941   6.071  0.4627 -0.4557  0.3483
    4PEO   H0B1 2283   2.246   4.109   6.151 -1.1786  0.8629 -0.8579
    4PEO   H0B2 2284   2.267   4.082   5.971  2.0213 -0.0880  0.3059
    4PEO   C0B3 2285   2.257   4.035   6.070  0.0674 -0.0948  0.1510
    4PEO   C0B4 2286   2.394   3.971   6.105 -1.0162 -0.4940  0.8564
    4PEO   H0B5 2287   2.468   4.050   6.125  1.7509 -1.7092 -3.2847
    4PEO   H0B6 2288   2.372   3.918   6.199 -3.1872  3.4112  2.7962
    4PEO   O0B7 2289   2.428   3.867   6.006  0.0272 -0.2356  0.2811
    4PEO   H0B8 2290   2.564   3.800   6.141  1.9880 -1.6772 -0.3627
    4PEO   H0B9 2291   2.646   3.860   6.004  0.8789 -3.4120 -0.3632
    4PEO   C0BA 2292   2.553   3.809   6.032 -0.7262 -0.5305 -0.0609
    4PEO   C0BB 2293   2.561   3.673   5.965  0.5168 -0.5277  0.8490
    4PEO   H0BC 2294   2.632   3.610   6.021  0.2795 -0.2110  1.5207
    4PEO   H0BD 2295   2.468   3.616   5.980 -0.5306  0.4873 -1.3032
    4PEO   O0BE 2296   2.597   3.688   5.823  0.4070 -0.5995 -0.1288
    4PEO   H0BF 2297   2.520   3.525   5.726  0.3727 -0.0267  0.5799
    4PEO   H0C0 2298   2.672   3.490   5.809 -0.2804 -1.5302 -0.0441
    4PEO   C0C1 2299   2.620   3.565   5.748  0.5419 -0.4345  0.5604
    4PEO   C0C2 2300   2.703   3.593   5.616 -0.2475  0.0410 -0.7671
    4PEO   H0C3 2301   2.762   3.684   5.633 -2.3885  1.2657  0.5201
    4PEO   H0C4 2302   2.764   3.502   5.602 -0.7310 -0.2259 -1.1403
    4PEO   O0C5 2303   2.613   3.613   5.511  0.5281  0.1219  0.0280
    4PEO   H0C6 2304   2.666   3.476   5.354  2.1906 -0.5385  0.7338
    4PEO   H0C7 2305   2.752   3.619   5.344 -2.0791  0.2824 -1.1808
    4PEO   C0C8 2306   2.654   3.583   5.377 -1.6061 -0.5237 -0.6345
    4PEO   C0C9 2307   2.562   3.659   5.285 -0.6132 -0.3011 -0.5786
    4PEO   H0CA 2308   2.571   3.767   5.305  2.1695  0.1902 -3.5789
    4PEO   H0CB 2309   2.592   3.649   5.179  1.6943 -1.5264  0.1155
    4PEO   O0CC 2310   2.430   3.622   5.321 -0.1847  1.4919  0.3230
    4PEO   H0CD 2311   2.331   3.761   5.193  0.8310 -0.1344 -0.8401
    4PEO   H0CE 2312   2.343   3.815   5.362 -1.2413  0.0017 -0.6068
    4PEO   C0CF 2313   2.335   3.726   5.297 -0.5174  0.0158 -0.7155
    4PEO   C0D0 2314   2.189   3.679   5.323 -0.0622 -0.5515 -0.4474
    4PEO   H0D1 2315   2.124   3.749   5.269 -2.5907 -1.0361  1.7297
    4PEO   H0D2 2316   2.174   3.578   5.281 -2.8315  0.1900 -1.4853
    4PEO   O0D3 2317   2.150   3.677   5.458 -0.2550  0.4804 -0.2096
    4PEO   H0D4 2318   2.330   3.663   5.545  0.0705  0.3238 -1.3186
    4PEO   H0D5 2319   2.260   3.508   5.473 -4.1400  0.4983 -1.5637
    4PEO   C0D6 2320   2.241   3.599   5.531 -0.2559  0.4050  0.1630
    4PEO   C0D7 2321   2.188   3.564   5.675  0.2809 -0.0339  0.1364
    4PEO   H0D8 2322   2.273   3.510   5.720 -0.6136 -2.8091 -1.2481
    4PEO   H0D9 2323   2.161   3.652   5.735  2.3779  0.1461  0.8972
    4PEO   O0DA 2324   2.069   3.479   5.655 -0.2450 -0.0494  0.7072
    4PEO   H0DB 2325   1.922   3.449   5.810 -0.8040  0.0284 -3.0947
    4PEO   H0DC 2326   2.090   3.460   5.872 -0.9206  2.5495 -0.2609
    4PEO   C0DD 2327   2.027   3.425   5.789 -0.0835 -0.1022  0.1234
    4PEO   C0DE 2328   2.030   3.273   5.791  0.6596 -0.0758  1.0027
    4PEO   H0DF 2329   1.953   3.235   5.859  2.0037  0.5888  2.9718
    4PEO   H0E0 2330   2.011   3.233   5.690 -0.6568 -0.5126  1.4106
    4PEO   O0E1 2331   2.168   3.240   5.827 -0.0507  0.3659  0.0825
    4PEO   H0E2 2332   2.164   3.091   5.684 -0.2338  0.9720 -0.5179
    4PEO   H0E3 2333   2.187   3.040   5.856  0.9802  0.3800 -0.0506
    4PEO   C0E4 2334   2.217   3.112   5.778 -0.2250  0.5023 -0.4132
    4PEO   C0E5 2335   2.374   3.109   5.773 -0.6552  0.2205  0.2866
    4PEO   H0E6 2336   2.429   3.123   5.867  1.0271  0.4528 -0.6939
    4PEO   H0E7 2337   2.404   3.014   5.728 -0.9695  0.4835 -0.4917
    4PEO   O0E8 2338   2.419   3.208   5.685 -0.1798 -0.1411 -0.0561
    4PEO   H0E9 2339   2.264   3.284   5.561  0.2403  0.3231  0.0340
    4PEO   H0EA 2340   2.335   3.126   5.512  1.6701 -0.1995 -0.3705
    4PEO   C0EB 2341   2.357   3.225   5.556  0.0730  0.0787 -0.1572
    4PEO   C0EC 2342   2.460   3.290   5.463 -0.2442  0.8109  0.4943
    4PEO   H0ED 2343   2.412   3.361   5.394 -1.7386 -1.6650 -1.1453
    4PEO   H0EE 2344   2.525   3.358   5.521  0.4242 -0.8221  1.7305
    4PEO   O0EF 2345   2.533   3.199   5.374 -0.1376 -0.2578 -0.3426
    4PEO   H0F0 2346   2.563   3.050   5.519 -2.2167  1.5344 -0.4970
    4PEO   H0F1 2347   2.673   3.192   5.526  0.0860 -2.1680  1.0999
    4PEO   C0F2 2348   2.624   3.120   5.459 -0.4634 -0.1642 -0.8008
    4PEO   C0F3 2349   2.734   3.073   5.365 -1.3940  0.1814 -0.0150
    4PEO   H0F4 2350   2.762   3.153   5.296  0.7809 -1.4234 -1.0766
    4PEO   H0F5 2351   2.826   3.062   5.424 -1.0591 -0.3953 -0.6478
    4PEO   O0F6 2352   2.705   2.955   5.292  0.5310  0.3058 -0.3067
    4PEO   H0F7 2353   2.903   2.954   5.232  0.1990 -0.3429  3.0763
    4PEO   H0F8 2354   2.801   2.988   5.104  0.2822 -2.6880 -1.2450
    4PEO   C0F9 2355   2.803   2.926   5.195  1.0309 -0.2128  0.5330
    4PEO   C0FA 2356   2.807   2.782   5.146 -0.2368 -0.4137 -0.6632
    4PEO   H0FB 2357   2.725   2.759   5.077 -0.0037 -3.5132 -0.0364
    4PEO   H0FC 2358   2.906   2.758   5.103  1.5649 -0.0400  2.8917
    4PEO   O0FD 2359   2.774   2.688   5.247  0.3127 -0.4294 -0.6952
    4PEO   H0FE 2360   2.809   2.545   5.105 -1.4724  1.7509 -0.7734
    4PEO   H0FF 2361   2.643   2.546   5.149 -0.8605  0.9597  0.4408
    4PEO   C100 2362   2.744   2.555   5.193 -0.6368  0.4158  0.0467
    4PEO   C101 2363   2.764   2.451   5.301 -0.9100 -0.7556 -0.0096
    4PEO   H102 2364   2.803   2.354   5.267  1.9959 -0.2332  1.4951
    4PEO   H103 2365   2.847   2.478   5.368 -0.0357 -0.5732 -1.1332
    4PEO   O104 2366   2.642   2.438   5.383 -0.6471  0.7337 -0.5505
    4PEO   H105 2367   2.593   2.241   5.389 -3.0923 -1.0311  0.6931
    4PEO   H106 2368   2.525   2.339   5.243  1.8064  0.3832 -0.8812
    4PEO   C107 2369   2.548   2.334   5.350  0.1327  0.1686 -0.5029
    4PEO   C108 2370   2.417   2.368   5.435  0.8072 -0.3462  0.1110
    4PEO   H109 2371   2.361   2.457   5.402 -2.3764 -2.1258  0.3548
    4PEO   H10A 2372   2.344   2.288   5.414 -1.2660  1.4910 -0.0747
    4PEO   O10B 2373   2.439   2.367   5.580 -0.1952  0.5208  0.0349
    4PEO   H10C 2374   2.471   2.241   5.748 -4.0472  3.6401  0.7836
    4PEO   H10D 2375   2.541   2.183   5.586  0.9791  3.3725 -0.0360
    4PEO   C10E 2376   2.459   2.234   5.639 -0.5390  0.6332  0.4095
    4PEO   C10F 2377   2.323   2.156   5.620  0.0290 -0.3975 -0.9334
    4PEO   H110 2378   2.317   2.116   5.518  0.5677 -0.6025 -0.8895
    4PEO   H111 2379   2.331   2.070   5.688  0.1002 -0.1239 -0.5956
    4PEO   O112 2380   2.207   2.242   5.654  0.0118  0.3290 -0.2435
    4PEO   H113 2381   2.072   2.079   5.660 -0.3787 -0.0194 -0.1433
    4PEO   H114 2382   2.068   2.146   5.503 -2.0460 -0.0490  0.8356
    4PEO   C115 2383   2.084   2.175   5.608  0.5470  0.2043  0.4507
    4PEO   C116 2384   1.960   2.256   5.646 -0.2265 -0.4301  0.0831
    4PEO   H117 2385   1.988   2.357   5.679 -0.3816 -0.8936  1.7637
    4PEO   H118 2386   1.903   2.257   5.552  3.8173  1.6961 -2.6303
    4PEO   O119 2387   1.892   2.202   5.751 -0.6199  0.6513  0.0920
    4PEO   H11A 2388   1.709   2.308   5.722  1.1744  0.5584 -0.3867
    4PEO   H11B 2389   1.803   2.357   5.855 -0.8555  0.3614 -0.2381
    4PEO   C11C 2390   1.774   2.266   5.801  0.5358 -0.1147 -0.2038
    4PEO   C11D 2391   1.704   2.173   5.910  0.0729 -0.2033 -0.2102
    4PEO   H11E 2392   1.780   2.134   5.979 -1.9394  0.0072  2.2692
    4PEO   H11F 2393   1.647   2.244   5.971 -0.1698  1.3088 -2.0995
    4PEO   O120 2394   1.610   2.083   5.864 -0.5522  0.3368 -0.4814
    4PEO   H121 2395   1.748   1.945   5.829 -0.7133 -2.7238 -0.1290
    4PEO   H122 2396   1.675   2.019   5.680  0.4524 -0.6287 -0.8543
    4PEO   C123 2397   1.655   1.973   5.778  0.2792 -0.8336 -0.9854
    4PEO   C124 2398   1.544   1.858   5.761 -0.2416 -0.1868 -0.2387
    4PEO   H125 2399   1.444   1.904   5.763  0.3066  1.0600  1.8731
    4PEO   H126 2400   1.566   1.806   5.666  2.2846  1.4205 -0.6052
    4PEO   O127 2401   1.554   1.762   5.879  0.0016  0.0047  0.2077
    4PEO   H128 2402   1.509   1.583   5.801 -0.0196 -0.8950  1.1656
    4PEO   H129 2403   1.357   1.678   5.862 -0.5733 -2.3976 -0.7228
    4PEO   C12A 2404   1.463   1.651   5.874  0.1193  0.3760  0.1126
    4PEO   C12B 2405   1.490   1.571   6.011 -0.2332  0.0476 -0.2332
    4PEO   H12C 2406   1.432   1.478   6.011 -1.1452  0.5202 -3.2367
    4PEO   H12D 2407   1.595   1.561   6.043  0.0190 -0.9686 -1.2965
    4PEO   O12E 2408   1.434   1.662   6.114  0.7435  0.0171 -0.1730
    4PEO   H12F 2409   1.296   1.535   6.224 -0.7019  0.8049  0.8319
    4PEO   H130 2410   1.354   1.673   6.324  1.8255 -2.5683  3.9390
    4PEO   C131 2411   1.380   1.604   6.243 -0.1901  0.2651  0.5550
    4PEO   C132 2412   1.490   1.521   6.310  0.2218 -0.2100  0.2406
    4PEO   H133 2413   1.583   1.560   6.268 -0.7678  0.8542 -1.0456
    4PEO   H134 2414   1.489   1.521   6.420  0.5835 -0.9071  0.2471
    4PEO   O135 2415   1.484   1.387   6.261  0.3342 -0.5510 -0.0917
    4PEO   H136 2416   1.578   1.313   6.430 -1.1839  1.3866  0.0121
    4PEO   H137 2417   1.687   1.375   6.302 -0.0705 -1.5706 -2.7714
    4PEO   C138 2418   1.594   1.319   6.322 -0.8402  0.4555  0.0023
    4PEO   C139 2419   1.621   1.178   6.255 -0.2302 -0.1837  0.8081
    4PEO   H13A 2420   1.605   1.193   6.147  2.2139 -0.6899  0.3108
    4PEO   H13B 2421   1.719   1.134   6.278  0.2982 -0.0741 -1.0679
    4PEO   O13C 2422   1.523   1.082   6.300 -0.9873 -0.5971  0.6538
    4PEO   H13D 2423   1.541   0.954   6.128 -0.5120 -0.8554 -0.0780
    4PEO   H13E 2424   1.431   0.906   6.253  0.0911 -0.5224  0.0040
    4PEO   C13F 2425   1.528   0.957   6.237 -0.2914  0.2062 -0.0646
    4PEO   C140 2426   1.642   0.869   6.300 -0.2539 -0.1030 -0.5305
    4PEO   H141 2427   1.651   0.907   6.403 -3.6521 -0.4660 -0.0138
    4PEO   H142 2428   1.611   0.764   6.297 -1.2284  0.1853 -0.8939
    4PEO   O143 2429   1.769   0.887   6.233 -0.0568 -0.6778  1.2781
    4PEO   H144 2430   1.913   0.852   6.379  0.0934  0.2583 -0.1870
    4PEO   H145 2431   1.967   0.825   6.216 -0.1695  0.2788  1.0923
    4PEO   C146 2432   1.881   0.811   6.282 -0.4494 -0.9893  0.4923
    4PEO   C147 2433   1.847   0.663   6.317 -0.1604  0.5318  0.4053
    4PEO   H148 2434   1.929   0.639   6.386  0.3127 -0.6401 -0.5162
    4PEO   H149 2435   1.748   0.646   6.363 -1.0380 -0.4967 -1.7099
    4PEO   O14A 2436   1.863   0.600   6.189 -0.1121 -0.8927 -0.1259
    4PEO   H14B 2437   1.698   0.680   6.091 -1.1110 -0.9934 -0.3541
    4PEO   H14C 2438   1.666   0.543   6.195 -0.4590  1.7801  1.3868
    4PEO   C14D 2439   1.739   0.583   6.123  0.2060 -0.0346  0.9923
    4PEO   C14E 2440   1.752   0.510   5.986 -0.3367 -0.0700 -0.3197
    4PEO   H14F 2441   1.819   0.424   5.995  0.0565  0.3018  0.4121
    4PEO   H150 2442   1.654   0.472   5.952 -0.4454  1.1829 -1.4934
    4PEO   O151 2443   1.811   0.597   5.890  0.5082 -0.1324 -0.0659
    4PEO   H152 2444   1.801   0.504   5.710  0.1908  0.1902 -0.1039
    4PEO   H153 2445   1.950   0.468   5.823  0.9789  2.1564  2.3395
    4PEO   C154 2446   1.879   0.540   5.779 -0.2660 -0.0553  0.5522
    4PEO   C155 2447   1.945   0.653   5.694 -0.6071  0.2735 -0.7369
    4PEO   H156 2448   2.013   0.716   5.754 -2.1320  0.4029  0.9388
    4PEO   H157 2449   2.013   0.605   5.622  1.0746 -1.2749  1.6865
    4PEO   O158 2450   1.832   0.719   5.626 -0.2520 -0.0357 -0.4309
    4PEO   H159 2451   1.944   0.757   5.448 -0.4099  1.0715 -0.7667
    4PEO   H15A 2452   1.941   0.877   5.585  1.2713 -0.0214 -0.0910
    4PEO   C15B 2453   1.883   0.804   5.526  0.3396  0.4593  0.2000
    4PEO   C15C 2454   1.764   0.881   5.462 -0.8588 -0.4237  0.4374
    4PEO   H15D 2455   1.787   0.897   5.356  0.7076 -2.8359  0.3487
    4PEO   H15E 2456   1.679   0.811   5.455 -0.5840 -0.6813 -0.4234
    4PEO   O15F 2457   1.739   1.000   5.537  0.0732  0.8760 -0.0531
    4PEO   H160 2458   1.658   1.078   5.366  0.5688 -0.4385  0.2729
    4PEO   H161 2459   1.643   1.188   5.514 -1.7226 -0.0562  2.0213
    4PEO   C162 2460   1.641   1.085   5.475 -0.0335  0.5770  0.1271
    4PEO   C163 2461   1.503   1.017   5.500  0.1683  0.1364 -0.6917
    4PEO   H164 2462   1.485   0.967   5.596 -0.4543 -2.4279 -2.0224
    4PEO   H165 2463   1.423   1.092   5.488 -1.2473 -1.0061  1.1283
    4PEO   O166 2464   1.488   0.913   5.394 -0.3894  0.3398 -0.2137
    4PEO   H167 2465   1.278   0.876   5.376  1.6875  1.6042  0.2664
    4PEO   H168 2466   1.369   0.786   5.507  1.5066 -2.2859 -0.4135
    4PEO   C169 2467   1.373   0.830   5.406  0.8226 -0.1693  0.4336
    4PEO   C16A 2468   1.399   0.713   5.313 -0.2567 -0.3891  1.3744
    4PEO   H16B 2469   1.316   0.641   5.318  0.2869 -1.5685 -2.9285
    4PEO   H16C 2470   1.409   0.744   5.208 -1.4723 -1.8513  0.7930
    4PEO   O16D 2471   1.517   0.645   5.367  1.0384 -0.0295  0.3570
    4PEO   H16E 2472   1.643   0.592   5.217  0.7350 -0.5210  1.1767
    4PEO   H16F 2473   1.512   0.480   5.230  0.9505 -1.3777  0.1213
    4PEO   C170 2474   1.578   0.543   5.291 -0.3434 -0.2703  0.4147
    4PEO   C171 2475   1.651   0.451   5.394 -0.2704  0.3035 -0.4928
    4PEO   H172 2476   1.734   0.408   5.336  0.9934  1.2148  0.5996
    4PEO   H173 2477   1.696   0.520   5.466  2.3133  0.4556 -2.1286
    4PEO   O174 2478   1.563   0.340   5.438 -0.3392 -0.6100 -1.0169
    4PEO   H175 2479   1.663   0.297   5.617 -0.4351  1.7322 -1.5715
    4PEO   H176 2480   1.697   0.202   5.464  0.0935  0.8928 -1.7253
    4PEO   C177 2481   1.621   0.247   5.529  0.1839 -0.3593 -0.7378
    4PEO   C178 2482   1.530   0.136   5.579 -0.4599  1.3170  0.2955
    4PEO   H179 2483   1.569   0.073   5.660  0.0050 -0.2724 -1.0973
    4PEO   H17A 2484   1.430   0.175   5.603 -1.5819 -0.3941 -1.3136
    4PEO   O17B 2485   1.505   0.046   5.471  0.0827 -0.7786  0.4813
    4PEO   H17C 2486   1.298   0.016   5.459  1.7307  2.0165 -1.7926
    4PEO   H17D 2487   1.371  -0.073   5.592 -0.8571 -0.0621 -0.5541
    4PEO   C17E 2488   1.388  -0.040   5.489  0.2449  0.2919 -0.2691
    4PEO   C17F 2489   1.410  -0.172   5.404  0.3787 -0.0574  0.1825
    4PEO   H180 2490   1.311  -0.221   5.394  1.0181 -1.0330 -2.1439
    4PEO   H181 2491   1.442  -0.151   5.301 -2.3016  0.5226 -0.6239
    4PEO   O182 2492   1.502  -0.269   5.466  0.3260 -0.2430  0.0876
    4PEO   H183 2493   1.484  -0.403   5.299  0.9831 -2.4361  0.4952
    4PEO   H184 2494   1.399  -0.445   5.448  0.4400 -0.8477 -0.1277
    4PEO   C185 2495   1.491  -0.399   5.408  0.0881  0.4865  0.5391
    4PEO   C186 2496   1.612  -0.479   5.452  0.3082  0.6355 -0.8042
    4PEO   H187 2497   1.622  -0.574   5.399  1.6752 -0.1465  0.7504
    4PEO   H188 2498   1.701  -0.419   5.429  2.4124 -1.5401  1.0577
    4PEO   O189 2499   1.618  -0.496   5.599 -0.9106 -0.4243  0.6179
    4PEO   H18A 2500   1.552  -0.694   5.618 -1.1973 -1.2284  2.9549
    4PEO   H18B 2501   1.422  -0.580   5.625 -0.1318 -0.6792 -0.2136
    4PEO   C18C 2502   1.525  -0.595   5.660 -0.1931  0.2164  0.4103
    4PEO   C18D 2503   1.535  -0.593   5.812 -0.5831 -0.3917 -0.7327
    4PEO   H18E 2504   1.527  -0.486   5.839 -0.1473  0.5036 -3.7468
    4PEO   H18F 2505   1.448  -0.638   5.861 -2.2221  1.2547 -1.9781
    4PEO   O190 2506   1.666  -0.633   5.857  0.3460  0.3066  0.0551
    4PEO   H191 2507   1.667  -0.841   5.792 -0.0706 -0.6748  0.8532
    4PEO   H192 2508   1.622  -0.825   5.957 -0.1115 -0.4074 -0.1548
    4PEO   C193 2509   1.683  -0.776   5.880  0.0625  0.0797  0.2846
    4PEO   C194 2510   1.822  -0.810   5.922 -0.2678  0.1187  0.2695
    4PEO   H195 2511   1.854  -0.733   5.994 -0.4275  0.7891 -0.3544
    4PEO   H196 2512   1.837  -0.910   5.963 -1.6460  0.1604  0.9322
    4PEO   O197 2513   1.915  -0.803   5.808 -0.6784 -0.4295  0.4889
    4PEO   H198 2514   2.067  -0.945   5.804  1.3951  0.8012 -3.1787
    4PEO   H199 2515   2.087  -0.799   5.920  0.0638  1.3031 -0.0520
    4PEO   C19A 2516   2.054  -0.837   5.822  0.4694  0.2033  0.2260
    4PEO   C19B 2517   2.143  -0.778   5.708 -0.1601  0.8208 -0.3923
    4PEO   H19C 2518   2.249  -0.799   5.727 -0.7196  1.0806  3.7469
    4PEO   H19D 2519   2.110  -0.819   5.611  1.5874 -2.9755  0.4390
    4PEO   O19E 2520   2.149  -0.632   5.710  0.3114  0.4646 -0.1213
    4PEO   H19F 2521   2.041  -0.451   5.679 -0.1757 -0.7873 -3.7503
    4PEO   H1A0 2522   1.973  -0.568   5.792 -0.9541 -0.1564 -0.7722
    4PEO   C1A1 2523   2.024  -0.558   5.695 -0.3937 -0.3750 -0.4985
    4PEO   C1A2 2524   1.940  -0.603   5.577  0.0538 -0.6639 -0.0583
    4PEO   H1A3 2525   1.870  -0.686   5.592  1.6486 -2.4443 -1.7828
    4PEO   H1A4 2526   1.876  -0.517   5.553  1.5334 -0.2088 -2.8828
    4PEO   O1A5 2527   2.019  -0.620   5.458 -0.0656  0.0643 -0.4055
    4PEO   H1A6 2528   1.890  -0.620   5.303  0.9715  1.0868  0.7984
    4PEO   H1A7 2529   1.907  -0.780   5.391 -2.5583 -0.6407 -3.2474
    4PEO   C1A8 2530   1.959  -0.693   5.349 -0.0136 -0.2012  0.2900
    4PEO   C1A9 2531   2.074  -0.753   5.265  0.6932 -0.3127 -0.1271
    4PEO   H1AA 2532   2.108  -0.834   5.330  0.6654  0.4623  0.8727
    4PEO   H1AB 2533   2.024  -0.795   5.176 -1.5899 -2.8298  2.1775
    4PEO   O1AC 2534   2.180  -0.664   5.240 -0.3643  0.3765 -0.0757
    4PEO   H1AD 2535   2.235  -0.711   5.054 -0.2667 -0.5198  0.4804
    4PEO   H1AE 2536   2.308  -0.809   5.182 -0.8852  0.8888  2.9704
    4PEO   C1AF 2537   2.281  -0.707   5.154  0.8323  0.6290 -0.0414
    4PEO   C1B0 2538   2.400  -0.617   5.158  0.3536  0.2019 -0.0440
    4PEO   H1B1 2539   2.474  -0.649   5.083 -1.2548  0.9200 -2.0347
    4PEO   H1B2 2540   2.362  -0.518   5.127  2.1427  1.1745  0.7574
    4PEO   O1B3 2541   2.460  -0.610   5.287  0.5564  0.2795 -0.1490
    4PEO   H1B4 2542   2.634  -0.537   5.199 -0.2519  0.4395  0.0369
    4PEO   H1B5 2543   2.636  -0.533   5.370  1.3738  0.9469 -1.0785
    4PEO   C1B6 2544   2.567  -0.523   5.285 -0.3002 -0.1101  0.0896
    4PEO   C1B7 2545   2.515  -0.378   5.291  0.1265  0.0106  0.1104
    4PEO   H1B8 2546   2.448  -0.383   5.378  2.0582 -0.9450  1.6344
    4PEO   H1B9 2547   2.596  -0.308   5.317 -0.4346  1.6934 -2.3768
    4PEO   O1BA 2548   2.452  -0.331   5.166 -0.7125  0.0592  0.2570
    4PEO   H1BB 2549   2.594  -0.388   5.034 -0.6364 -0.2529 -0.8716
    4PEO   H1BC 2550   2.622  -0.231   5.108  0.1117 -0.1147 -1.0914
    4PEO   C1BD 2551   2.545  -0.294   5.061 -0.4382 -0.4328  0.1729
    4PEO   C1BE 2552   2.480  -0.210   4.950 -0.0382 -0.3609  0.5500
    4PEO   H1BF 2553   2.438  -0.121   5.001  2.1393 -0.3103  2.4049
    4PEO   H1C0 2554   2.562  -0.178   4.885 -1.0729  2.1805  0.3741
    4PEO   O1C1 2555   2.387  -0.293   4.872 -0.1472 -0.0319 -0.4838
    4PEO   H1C2 2556   2.497  -0.476   4.858  0.3723 -1.3079 -0.5087
    4PEO   H1C3 2557   2.521  -0.357   4.728  0.1467 -0.3271 -0.3491
    4PEO   C1C4 2558   2.447  -0.400   4.796  0.7077 -0.5632  0.1207
    4PEO   C1C5 2559   2.341  -0.474   4.715 -0.6433 -0.0106  0.3992
    4PEO   H1C6 2560   2.298  -0.398   4.648 -0.7588 -0.9582 -0.6514
    4PEO   H1C7 2561   2.392  -0.542   4.644  0.1024  2.3506 -1.4463
    4PEO   O1C8 2562   2.231  -0.527   4.795 -0.4563  0.1263 -0.0102
    4PEO   H1C9 2563   2.094  -0.514   4.635  1.2713 -0.0672 -1.7816
    4PEO   H1CA 2564   2.042  -0.621   4.769 -0.6825 -2.2316 -1.3428
    4PEO   C1CB 2565   2.128  -0.586   4.710 -0.8776  0.5111 -0.1654
    4PEO   C1CC 2566   2.177  -0.698   4.616 -0.7352  0.2744 -0.4561
    4PEO   H1CD 2567   2.242  -0.768   4.670  1.5437  0.9669 -2.1401
    4PEO   H1CE 2568   2.088  -0.746   4.573  0.8086 -0.9473 -2.4813
    4PEO   O1CF 2569   2.244  -0.646   4.497  0.1110 -0.0404  0.3539
    4PEO   H1D0 2570   2.219  -0.832   4.391 -0.6089  0.2864  1.2310
    4PEO   H1D1 2571   2.379  -0.799   4.445 -0.6677  1.2833  0.5799
    4PEO   C1D2 2572   2.290  -0.749   4.405 -0.4301  0.5577 -0.9403
    4PEO   C1D3 2573   2.319  -0.685   4.266 -0.2019 -0.7672 -0.2231
    4PEO   H1D4 2574   2.328  -0.761   4.187  0.7150 -0.6619 -0.2317
    4PEO   H1D5 2575   2.240  -0.612   4.239 -0.5707 -1.6477 -1.6533
    4PEO   O1D6 2576   2.451  -0.619   4.267 -0.2204  0.5313 -0.0872
    4PEO   H1D7 2577   2.415  -0.485   4.404 -0.7208 -0.9035 -0.9937
    4PEO   H1D8 2578   2.384  -0.423   4.243 -0.5006 -0.4455 -0.6129
    4PEO   C1D9 2579   2.454  -0.485   4.302 -0.3058 -0.4431 -0.8406
    4PEO   C1DA 2580   2.611  -0.432   4.292 -0.0226  0.0367  1.4043
    4PEO   H1DB 2581   2.669  -0.483   4.213  0.4666  1.2004  0.9925
    4PEO   H1DC 2582   2.625  -0.328   4.260  2.1456 -0.7700 -0.6441
    4PEO   O1DD 2583   2.670  -0.448   4.415  0.3918  0.4368 -0.1013
    4PEO   H1DE 2584   2.814  -0.307   4.358 -1.4779 -0.9299 -1.3730
    4PEO   H1DF 2585   2.875  -0.472   4.386 -0.5460 -0.2148 -1.4654
    4PEO   C1E0 2586   2.804  -0.396   4.423  0.1674 -0.2056 -0.0490
    4PEO   C1E1 2587   2.839  -0.365   4.573 -0.8403 -0.0638 -0.3157
    4PEO   H1E2 2588   2.834  -0.458   4.632  2.4798 -1.9379 -2.6731
    4PEO   H1E3 2589   2.942  -0.334   4.593 -1.5004 -0.1568  4.5588
    4PEO   O1E4 2590   2.745  -0.260   4.617 -0.4997 -0.0838 -0.5621
    4PEO   H1E5 2591   2.737  -0.078   4.711 -0.1567 -0.7395  1.2883
    4PEO   H1E6 2592   2.894  -0.096   4.635  0.4955 -0.2328  1.2569
    4PEO   C1E7 2593   2.814  -0.152   4.687 -0.3784 -0.4936 -0.2996
    4PEO   C1E8 2594   2.862  -0.206   4.830  0.5650 -0.1133  0.4089
    4PEO   H1E9 2595   2.885  -0.118   4.892  1.6928  0.4154 -0.7150
    4PEO   H1EA 2596   2.790  -0.271   4.882  0.2195 -2.1780 -2.4109
    4PEO   O1EB 2597   2.986  -0.285   4.818  0.4703  0.3048 -0.5242
    4PEO   H1EC 2598   3.092  -0.128   4.887  0.1601  0.5026 -0.7485
    4PEO   H1ED 2599   3.120  -0.163   4.710  1.0107 -1.0900 -0.2385
    4PEO   C1EE 2600   3.105  -0.205   4.810  0.8215 -0.2461  0.0995
    4PEO   C1EF 2601   3.228  -0.291   4.840 -0.7349  0.4137 -1.3789
    4PEO   H1F0 2602   3.214  -0.397   4.817 -2.2669  0.2803  0.0121
    4PEO   H1F1 2603   3.319  -0.245   4.797  1.9711 -1.2546  1.9887
    4PEO   O1F2 2604   3.243  -0.288   4.978 -0.0927 -0.4819 -0.6351
    4PEO   H1F3 2605   3.444  -0.349   5.034 -1.5805  2.5246  0.6504
    4PEO   H1F4 2606   3.330  -0.478   4.988  0.3037  0.1634 -1.5905
    4PEO   C1F5 2607   3.339  -0.379   5.036 -0.8305 -0.4766 -0.0027
    4PEO   C1F6 2608   3.305  -0.397   5.185 -0.7846 -0.7093 -0.1260
    4PEO   H1F7 2609   3.197  -0.414   5.199 -1.5422  2.7671 -0.6911
    4PEO   H1F8 2610   3.344  -0.492   5.224 -2.8483 -1.6923 -0.3110
    4PEO   O1F9 2611   3.344  -0.277   5.247  0.0329 -0.2336 -0.0931
    4PEO   H1FA 2612   3.375  -0.327   5.451 -1.1053 -1.1460 -0.4150
    4PEO   H1FB 2613   3.206  -0.283   5.395 -0.8021  1.1305  0.1379
    4PEO   C1FC 2614   3.314  -0.260   5.389 -0.6184  0.4598  0.7428
    4PEO   C1FD 2615   3.318  -0.112   5.424 -0.9961  0.0471  0.2228
    4PEO   H1FE 2616   3.257  -0.049   5.357 -2.1862 -0.2994  0.9460
    4PEO   H1FF 2617   3.290  -0.107   5.530  0.0215  0.5770  0.4791
    4PEO   O200 2618   3.459  -0.053   5.422 -0.0433 -0.1422  0.5188
    4PEO   H201 2619   3.460   0.107   5.558  1.6638  1.3063 -0.0908
    4PEO   H202 2620   3.416   0.152   5.387  1.2243  3.0471  1.8992
    4PEO   C203 2621   3.479   0.088   5.451  0.7703  0.4342 -0.1051
    4PEO   C204 2622   3.634   0.121   5.433 -0.0488  0.7527 -0.1604
    4PEO   H205 2623   3.660   0.079   5.335  2.3750 -0.5132  0.9488
    4PEO   H206 2624   3.645   0.231   5.433  0.3790  0.7423 -2.5140
    4PEO   O207 2625   3.714   0.071   5.535 -0.2552  0.2219  0.4996
    4PEO   H208 2626   3.848  -0.086   5.530 -0.5204 -0.4686 -2.7299
    4PEO   H209 2627   3.701  -0.111   5.451  2.0619  0.7524 -1.0286
    4PEO   C20A 2628   3.740  -0.066   5.543 -0.1528  0.0136  0.3555
    4PEO   C20B 2629   3.676  -0.137   5.661 -0.3206 -0.2285 -0.2861
    4PEO   H20C 2630   3.570  -0.109   5.657 -0.8767 -2.2770 -1.0688
    4PEO   H20D 2631   3.682  -0.247   5.655  0.7014 -0.2609  0.7622
    4PEO   O20E 2632   3.736  -0.106   5.787 -0.1567 -0.0385  0.2322
    4PEO   H20F 2633   3.771  -0.310   5.837  0.7737 -0.7334 -0.8136
    4PEO   H210 2634   3.849  -0.191   5.943  1.2661 -1.5273  0.6458
    4PEO   C211 2635   3.815  -0.210   5.840  0.6425 -0.7031  0.6935
    4PEO   C212 2636   3.948  -0.217   5.761  0.1731 -0.5859  0.5145
    4PEO   H213 2637   3.972  -0.118   5.719 -0.9538 -0.4157  0.2452
    4PEO   H214 2638   4.031  -0.254   5.823  0.8318 -0.3050 -0.1831
    4PEO   O215 2639   3.938  -0.297   5.649 -0.3495  0.1420  0.1605
    4PEO   H216 2640   4.112  -0.415   5.650  1.4305  0.8379  0.9921
    4PEO   H217 2641   4.124  -0.247   5.585  1.4627 -0.9772 -0.5526
    4PEO   C218 2642   4.063  -0.339   5.587  0.3120 -0.2116  0.5533
    4PEO   C219 2643   4.038  -0.380   5.437  0.1495  0.8828  0.0577
    4PEO   H21A 2644   4.132  -0.367   5.381  0.6350  0.5885  0.7905
    4PEO   H21B 2645   4.019  -0.487   5.451 -0.6521  1.1869  1.5487
    4PEO   O21C 2646   3.937  -0.297   5.376 -0.0752 -0.0307 -0.3468
    4PEO   H21D 2647   3.816  -0.439   5.291  1.0579 -1.8187 -1.4060
    4PEO   H21E 2648   3.956  -0.410   5.191 -1.1400  1.0947 -2.7605
    4PEO   C21F 2649   3.884  -0.360   5.258  0.2594 -0.4466  0.0859
    4PEO   C220 2650   3.783  -0.261   5.196  0.1555  0.2697  0.7836
    4PEO   H221 2651   3.719  -0.315   5.125  1.3309  0.6425 -0.6159
    4PEO   H222 2652   3.708  -0.222   5.266 -1.0956 -0.0445 -0.3370
    4PEO   O223 2653   3.857  -0.157   5.127  0.4826  0.3973  0.4965
    4PEO   H224 2654   3.998  -0.065   5.254 -0.2181 -0.6386 -0.1909
    4PEO   H225 2655   3.831   0.010   5.259 -0.7981 -1.4036  0.1999
    4PEO   C226 2656   3.908  -0.038   5.196 -0.1873 -0.1666 -0.0183
    4PEO   C227 2657   3.951   0.066   5.090 -0.0828  0.3628 -0.1826
    4PEO   H228 2658   4.007   0.152   5.128  1.8607 -1.0515  0.2834
    4PEO   H229 2659   4.019   0.017   5.019 -0.1205 -0.0984  0.0953
    4PEO   O22A 2660   3.827   0.121   5.032  0.0842  0.7425 -0.1789
    4PEO   H22B 2661   3.788   0.231   4.859  3.1105 -1.8862 -1.7254
    4PEO   H22C 2662   3.961   0.225   4.915  0.6181 -2.8702  2.2879
    4PEO   C22D 2663   3.856   0.235   4.946  0.2932  0.3525  0.5811
    4PEO   C22E 2664   3.848   0.365   5.028  1.3346 -0.6898 -0.6996
    4PEO   H22F 2665   3.899   0.344   5.123  0.1514 -1.3483 -0.1812
    4PEO   H230 2666   3.909   0.440   4.976 -0.5882  0.3630 -1.5200
    4PEO   O231 2667   3.708   0.417   5.056 -0.2764 -0.0592  0.2956
    4PEO   H232 2668   3.694   0.274   5.205  2.3041 -1.3596 -2.1480
    4PEO   H233 2669   3.591   0.242   5.065 -1.0885 -0.3022  0.8536
    4PEO   C234 2670   3.631   0.322   5.129  0.2493 -0.3251  0.0626
    4PEO   C235 2671   3.523   0.416   5.192 -0.8935  0.2329 -0.6894
    4PEO   H236 2672   3.501   0.502   5.128  2.6084  0.7938 -1.3566
    4PEO   H237 2673   3.423   0.372   5.201 -1.0645 -0.7035 -5.0019
    4PEO   O238 2674   3.577   0.458   5.323 -0.3396 -1.0978 -0.5025
    4PEO   H239 2675   3.484   0.652   5.303 -0.0320 -0.3290 -0.6364
    4PEO   H23A 2676   3.585   0.635   5.450  0.8308 -0.6413  0.1004
    4PEO   C23B 2677   3.517   0.583   5.381  0.8211  0.1824 -0.5376
    4PEO   C23C 2678   3.410   0.526   5.467  0.8679  0.5691 -0.0827
    4PEO   H23D 2679   3.315   0.583   5.462  0.0428 -0.7946 -0.5136
    4PEO   H23E 2680   3.386   0.422   5.440 -1.2440  1.4136 -1.7563
    4PEO   O23F 2681   3.449   0.518   5.601  0.2346 -0.2371 -0.6894
    4PEO   H240 2682   3.410   0.328   5.647  1.5869  0.8703 -1.0643
    4PEO   H241 2683   3.261   0.426   5.643 -0.6677 -0.4499  0.8406
    4PEO   C242 2684   3.367   0.425   5.675 -0.3295 -0.1467 -0.2351
    4PEO   C243 2685   3.356   0.467   5.829 -0.1587 -0.2902  0.1144
    4PEO   H244 2686   3.335   0.382   5.896 -2.4742  0.3519  0.2869
    4PEO   H245 2687   3.456   0.496   5.863 -0.4412  0.6277  0.1735
    4PEO   O246 2688   3.265   0.574   5.846  0.0664  0.3681  0.2065
    4PEO   H247 2689   3.098   0.483   5.938 -2.3223  3.5490  1.8671
    4PEO   H248 2690   3.106   0.473   5.765  1.1840 -2.1969  1.6316
    4PEO   C249 2691   3.127   0.540   5.849  0.0749  0.0904  0.1581
    4PEO   C24A 2692   3.046   0.673   5.856 -0.0090  0.4086  0.3390
    4PEO   H24B 2693   3.105   0.757   5.816 -1.6852  1.0756 -0.8698
    4PEO   H24C 2694   2.953   0.662   5.798  0.5049 -0.3351 -0.3631
    4PEO   O24D 2695   3.020   0.701   5.990  0.2716  0.4609 -0.4839
    4PEO   H24E 2696   3.016   0.906   5.992  2.2434 -1.4985  0.9344
    4PEO   H24F 2697   2.949   0.823   6.141 -1.2767  0.4333 -0.1450
    4PEO   C250 2698   2.955   0.823   6.031 -0.1077 -0.3624 -0.0996
    4PEO   C251 2699   2.804   0.830   5.996  0.3010  0.6875 -0.8084
    4PEO   H252 2700   2.764   0.932   5.990  1.6878  1.2625 -0.7229
    4PEO   H253 2701   2.799   0.776   5.900  2.6467  1.2368 -1.3093
    4PEO   O254 2702   2.731   0.764   6.102 -0.2272  0.5812  0.1506
    4PEO   H255 2703   2.858   0.615   6.167  0.4999 -0.3741 -0.0930
    4PEO   H256 2704   2.779   0.568   6.016 -0.7051  0.0030  1.0674
    4PEO   C257 2705   2.765   0.625   6.109  0.0755  0.7322  0.7474
    4PEO   C258 2706   2.650   0.546   6.191 -0.0148 -0.0283  0.7263
    4PEO   H259 2707   2.560   0.605   6.169  2.4025  2.9944 -1.9719
    4PEO   H25A 2708   2.628   0.441   6.166 -3.2213  0.1261  2.4407
    4PEO   O25B 2709   2.678   0.563   6.326 -0.5023 -0.1838  0.1756
    4PEO   H25C 2710   2.498   0.475   6.376 -0.5059 -0.3105 -0.0441
    4PEO   H25D 2711   2.591   0.544   6.500 -0.4412  3.4329 -2.1306
    4PEO   C25E 2712   2.602   0.482   6.410 -0.5534 -0.0057  0.0440
    4PEO   C25F 2713   2.669   0.355   6.464  0.1120  0.5028 -0.0535
    4PEO   H260 2714   2.741   0.378   6.543 -0.2484 -1.2047  0.8245
    4PEO   H261 2715   2.591   0.293   6.511 -0.1104  0.7746 -0.0601
    4PEO   O262 2716   2.728   0.277   6.359 -0.3235 -0.2989  0.1962
    4PEO   H263 2717   2.917   0.287   6.430 -0.5320  2.8628  1.1367
    4PEO   H264 2718   2.864   0.420   6.318 -3.3502  0.5829 -1.0833
    4PEO   C265 2719   2.863   0.312   6.337  0.1946  0.6206  0.0198
    4PEO   C266 2720   2.921   0.239   6.216 -0.2010  0.4530 -0.2677
    4PEO   H267 2721   2.839   0.228   6.144  1.7635  0.0501 -2.5670
    4PEO   H268 2722   3.013   0.296   6.197  0.8389 -0.4691  1.7267
    4PEO   O269 2723   2.965   0.101   6.257  0.3347 -0.5933 -0.3157
    4PEO   H26A 2724   3.134   0.094   6.129  0.9513 -2.2285  2.3995
    4PEO   H26B 2725   2.984   0.041   6.042 -2.6248  0.8137  0.8166
    4PEO   C26C 2726   3.036   0.046   6.139 -0.9807  0.8306 -0.0130
    4PEO   C26D 2727   3.071  -0.102   6.179  0.1314  0.2739  0.8544
    4PEO   H26E 2728   3.136  -0.155   6.107  0.4863 -0.8888  1.9811
    4PEO   H26F 2729   3.142  -0.095   6.263 -0.6516  0.1086  1.5452
    4PEO   O270 2730   2.962  -0.186   6.212 -0.6899  0.4951  0.3738
    4PEO   H271 2731   2.937  -0.311   6.056 -3.0970 -1.1421 -2.5182
    4PEO   H272 2732   2.885  -0.154   6.019 -0.5300  0.2714  0.7401
    4PEO   C273 2733   2.886  -0.225   6.102 -0.2441 -0.6525 -0.0337
    4PEO   C274 2734   2.742  -0.263   6.140 -0.0492 -0.1324 -0.3610
    4PEO   H275 2735   2.710  -0.359   6.098 -1.2681 -0.2895  0.8518
    4PEO   H276 2736   2.730  -0.265   6.250 -1.0326  1.7058 -0.3876
    4PEO   O277 2737   2.667  -0.166   6.080 -0.4311  0.5924  0.3574
    4PEO   H278 2738   2.726   0.032   6.021 -2.4024 -0.8525 -1.6286
    4PEO   H279 2739   2.753  -0.014   6.187  1.5298  0.4893 -1.8516
    4PEO   C27A 2740   2.684  -0.029   6.103 -0.5982 -0.1127 -0.0869
    4PEO   C27B 2741   2.546   0.027   6.143  0.4630  0.3576  0.7434
    4PEO   H27C 2742   2.557   0.136   6.145  2.7587  0.1937 -0.0573
    4PEO   H27D 2743   2.468   0.000   6.069  0.7387 -2.5409  1.3680
    4PEO   O27E 2744   2.516  -0.021   6.272  0.2280  0.0640  0.0432
    4PEO   H27F 2745   2.328   0.080   6.268  0.3001  1.3650 -0.9595
    4PEO   H280 2746   2.448   0.153   6.364 -4.2020  1.2048 -0.1551
    4PEO   C281 2747   2.412   0.054   6.333 -0.7209 -0.1764 -0.1816
    4PEO   C282 2748   2.359  -0.020   6.455  0.6072  0.4833  0.1037
    4PEO   H283 2749   2.442  -0.023   6.528  1.6412 -1.9754 -1.0584
    4PEO   H284 2750   2.283   0.035   6.511  1.3586 -0.5920  2.3051
    4PEO   O285 2751   2.305  -0.148   6.416 -0.1211  0.3721  0.0494
    4PEO   H286 2752   2.200  -0.200   6.590 -0.3796 -0.1658  0.1166
    4PEO   H287 2753   2.364  -0.254   6.594 -0.7217  0.1713  0.8601
    4PEO   C288 2754   2.278  -0.244   6.526 -0.2798 -0.1696  0.2379
    4PEO   C289 2755   2.230  -0.381   6.468 -0.8250  0.5046 -0.6179
    4PEO   H28A 2756   2.305  -0.428   6.403  1.4691  1.2363  1.3592
    4PEO   H28B 2757   2.229  -0.452   6.551 -0.2403  1.3073  0.0866
    4PEO   O28C 2758   2.098  -0.367   6.409 -0.2374  0.1778 -0.3927
    4PEO   H28D 2759   1.939  -0.477   6.328 -0.5519 -2.3166  1.0793
    4PEO   H28E 2760   2.095  -0.568   6.334  0.1718  0.6528  1.4529
    4PEO   C28F 2761   2.048  -0.471   6.311 -0.6099  0.1921  1.0955
    4PEO   C290 2762   2.080  -0.435   6.160  0.0916 -0.0171  0.1115
    4PEO   H291 2763   2.175  -0.382   6.148  1.8022 -3.0991 -1.2698
    4PEO   H292 2764   2.096  -0.524   6.097  1.3363 -0.5543  1.1442
    4PEO   O293 2765   1.994  -0.337   6.102  0.9902 -0.3721  0.1794
    4PEO   H294 2766   1.813  -0.435   6.117  1.3261 -1.5038 -0.7548
    4PEO   H295 2767   1.896  -0.480   5.977  0.6589  1.0715 -1.2411
    4PEO   C296 2768   1.879  -0.391   6.040  0.0976  0.5837 -0.6903
    4PEO   C297 2769   1.797  -0.274   5.974  0.1418 -0.2246  0.8953
    4PEO   H298 2770   1.697  -0.313   5.953 -0.2039  0.8923  0.3577
    4PEO   H299 2771   1.782  -0.186   6.039 -3.7368  2.0437 -2.5854
    4PEO   O29A 2772   1.839  -0.233   5.838  0.1520  0.4383 -0.2429
    4PEO   H29B 2773   1.697  -0.083   5.821 -2.2923  0.8569 -1.9024
    4PEO   H29C 2774   1.645  -0.243   5.737 -1.3499 -0.4828  1.8560
    4PEO   C29D 2775   1.725  -0.173   5.765 -1.0025 -0.2389  0.3666
    4PEO   C29E 2776   1.775  -0.102   5.635  0.0162  0.1960 -0.6231
    4PEO   H29F 2777   1.864  -0.155   5.598 -0.1128  0.0761 -0.7657
    4PEO   H2A0 2778   1.694  -0.104   5.561 -0.8119  1.5318  0.1935
    4PEO   O2A1 2779   1.814   0.036   5.660 -0.1867 -0.5741 -0.9456
    4PEO   H2A2 2780   2.002  -0.020   5.698 -1.0974 -0.2994  1.9504
    4PEO   H2A3 2781   1.900   0.024   5.841  1.2058  0.7593  0.5528
    4PEO   C2A4 2782   1.928   0.051   5.738 -0.9176  1.0559 -0.0031
    4PEO   C2A5 2783   1.984   0.192   5.735  0.2932 -0.4131 -0.2026
    4PEO   H2A6 2784   1.913   0.275   5.724  2.0000  1.1055 -0.1894
    4PEO   H2A7 2785   2.047   0.201   5.824 -0.4426 -1.7397  0.4843
    4PEO   O2A8 2786   2.063   0.208   5.614 -0.2358  0.6572 -0.4402
    4PEO   H2A9 2787   2.251   0.251   5.672  1.7496 -0.2206 -2.1349
    4PEO   H2AA 2788   2.141   0.388   5.681 -1.8367 -0.8447  1.0508
    4PEO   C2AB 2789   2.166   0.298   5.622  0.0094 -0.1251  0.6709
    4PEO   C2AC 2790   2.211   0.338   5.477 -0.5464 -0.0319 -0.2010
    4PEO   H2AD 2791   2.309   0.385   5.488  0.8423 -1.9447 -3.1781
    4PEO   H2AE 2792   2.228   0.248   5.416  0.2849 -0.5777  0.7859
    4PEO   O2AF 2793   2.116   0.433   5.427 -0.7212 -0.0476  0.1148
    4PEO   H2B0 2794   1.938   0.465   5.341  3.3502  1.9915 -2.5360
    4PEO   H2B1 2795   1.956   0.305   5.431  0.7299 -0.9728  0.4309
    4PEO   C2B2 2796   1.999   0.376   5.359 -0.5229 -0.4046  0.2228
    4PEO   C2B3 2797   2.036   0.323   5.223 -0.1206  0.2744 -0.3058
    4PEO   H2B4 2798   2.126   0.260   5.224 -0.5176 -0.3055  0.6660
    4PEO   H2B5 2799   1.950   0.261   5.191  0.0564 -1.2016  1.8214
    4PEO   O2B6 2800   2.043   0.430   5.136  0.3819 -0.2923 -0.3088
    4PEO   H2B7 2801   2.183   0.357   5.017 -0.4682  0.5418  2.1008
    4PEO   H2B8 2802   2.110   0.495   4.955  0.2581 -0.9546 -0.6596
    4PEO   C2B9 2803   2.083   0.400   5.005 -0.5795 -0.0606  0.6418
    4PEO   C2BA 2804   1.981   0.314   4.927 -0.5820  0.3543  0.0615
    4PEO   H2BB 2805   1.877   0.346   4.940 -0.2668  1.5861 -0.3545
    4PEO   H2BC 2806   1.991   0.335   4.820 -2.5288 -0.9636 -0.4344
    4PEO   O2BD 2807   2.006   0.173   4.932 -0.3728 -0.2018 -0.3685
    4PEO   H2BE 2808   1.957   0.155   5.014  1.6076  0.2704  0.9778
    5PEO   H001 2809   3.775   0.668   0.598 -1.7142 -0.0374  1.9390
    5PEO   H002 2810   3.721   0.828   0.640  1.0634  0.4757 -1.1609
    5PEO   H003 2811   3.606   0.712   0.565  0.0325 -1.4358 -1.7761
    5PEO   C004 2812   3.709   0.750   0.564 -0.4475  0.0426 -0.5224
    5PEO   C005 2813   3.749   0.796   0.424  0.4578  0.0507  0.0000
    5PEO   H006 2814   3.721   0.722   0.348 -1.3078  0.4659  0.1891
    5PEO   H007 2815   3.711   0.897   0.400  3.8887  1.2423 -0.9739
    5PEO   O008 2816   3.889   0.817   0.427  0.5551 -0.6948  0.1414
    5PEO   H009 2817   4.038   0.953   0.342 -0.0367 -0.3060 -0.6066
    5PEO   H00A 2818   3.877   1.019   0.357  1.7140  0.9619  2.1046
    5PEO   C00B 2819   3.932   0.926   0.336 -0.2181  0.0629  0.6986
    5PEO   C00C 2820   3.904   0.884   0.180 -1.0960 -1.3767  0.3171
    5PEO   H00D 2821   3.817   0.823   0.155 -0.3742 -1.1524 -3.1926
    5PEO   H00E 2822   3.898   0.971   0.113 -0.7633 -2.6163 -1.3944
    5PEO   O00F 2823   4.023   0.810   0.136  0.0258 -0.5794 -0.3520
    5PEO   H010 2824   3.997   0.847  -0.068  1.4373  0.1084  0.2802
    5PEO   H011 2825   3.903   0.719  -0.000  0.3636 -0.6908  0.8621
    5PEO   C012 2826   4.002   0.765   0.006  0.1666 -0.1547  0.1003
    5PEO   C013 2827   4.118   0.669  -0.028  0.4154 -0.8382  0.9938
    5PEO   H014 2828   4.149   0.624   0.067  0.9313 -1.3474  0.5929
    5PEO   H015 2829   4.089   0.597  -0.106 -2.4623 -0.1919  1.3314
    5PEO   O016 2830   4.226   0.750  -0.067 -0.0820  0.6265  1.0395
    5PEO   H017 2831   4.299   0.646  -0.230 -0.6091 -0.8878  0.0619
    5PEO   H018 2832   4.332   0.574  -0.070 -2.1575  1.1067  1.6987
    5PEO   C019 2833   4.329   0.668  -0.127 -0.1748  0.0707 -0.2637
    5PEO   C01A 2834   4.469   0.738  -0.136  0.1542 -0.3960  0.4965
    5PEO   H01B 2835   4.542   0.658  -0.152 -0.6415 -0.9659 -0.4194
    5PEO   H01C 2836   4.474   0.804  -0.224 -0.3848 -1.8926 -0.7029
    5PEO   O01D 2837   4.493   0.807  -0.010  0.0783 -0.1147 -0.0431
    5PEO   H01E 2838   4.694   0.807  -0.044  0.4897  1.6552 -1.6552
    5PEO   H01F 2839   4.649   0.900   0.092  2.5600  1.1212 -0.6464
    5PEO   C020 2840   4.616   0.878  -0.011 -0.0575  0.1893  0.3141
    5PEO   C021 2841   4.622   0.998  -0.107 -0.9477 -0.6043 -0.2031
    5PEO   H022 2842   4.532   1.061  -0.092  0.2630  1.1500  0.0006
    5PEO   H023 2843   4.708   1.059  -0.076 -0.7897 -0.8567 -0.1470
    5PEO   O024 2844   4.626   0.968  -0.241  0.3650 -0.2944 -0.0368
    5PEO   H025 2845   4.779   0.830  -0.256 -2.8132 -1.0952  0.9297
    5PEO   H026 2846   4.835   1.000  -0.290  0.3698 -0.4450  0.0937
    5PEO   C027 2847   4.755   0.926  -0.303  0.5482 -0.6044 -0.1023
    5PEO   C028 2848   4.737   0.894  -0.448 -0.2421 -0.0617  0.6901
    5PEO   H029 2849   4.676   0.964  -0.506 -2.5309 -2.7515 -0.3784
    5PEO   H02A 2850   4.831   0.878  -0.504 -1.4590 -1.5901 -1.0046
    5PEO   O02B 2851   4.659   0.768  -0.455 -0.6734 -0.9147  0.5115
    5PEO   H02C 2852   4.722   0.618  -0.309 -2.5523 -3.0131 -0.3182
    5PEO   H02D 2853   4.813   0.620  -0.455  0.0362 -0.9662  1.0847
    5PEO   C02E 2854   4.713   0.643  -0.415 -0.0806  0.3639  0.0877
    5PEO   C02F 2855   4.607   0.530  -0.458 -0.5648  0.0945  0.1946
    5PEO   H030 2856   4.590   0.532  -0.566 -1.3347  0.6775  0.3161
    5PEO   H031 2857   4.649   0.432  -0.432  2.7116  0.8438 -1.6723
    5PEO   O032 2858   4.481   0.548  -0.394 -0.8157 -0.4432  0.4213
    5PEO   H033 2859   4.393   0.429  -0.530  3.6837  0.7034 -0.5783
    5PEO   H034 2860   4.274   0.519  -0.417  0.6011 -1.8933  2.4323
    5PEO   C035 2861   4.370   0.467  -0.429  1.0561 -0.5521 -0.6282
    5PEO   C036 2862   4.356   0.343  -0.336  0.5326  0.4309  0.6306
    5PEO   H037 2863   4.316   0.261  -0.397 -0.9010 -0.1361  2.2510
    5PEO   H038 2864   4.455   0.311  -0.301 -0.9148 -3.1217  1.8593
    5PEO   O039 2865   4.265   0.361  -0.230  0.9406  0.6687 -0.2719
    5PEO   H03A 2866   4.353   0.233  -0.089 -1.0922  2.9127  2.6253
    5PEO   H03B 2867   4.228   0.152  -0.199  0.0697  0.2603 -0.9367
    5PEO   C03C 2868   4.256   0.242  -0.141 -0.2470 -0.3318  0.1550
    5PEO   C03D 2869   4.129   0.272  -0.051  0.3610 -0.2257  0.1583
    5PEO   H03E 2870   4.127   0.217   0.044 -4.8461  0.0825  0.4947
    5PEO   H03F 2871   4.130   0.379  -0.027 -1.8212 -0.2668  0.6833
    5PEO   O040 2872   4.003   0.241  -0.112  0.1623  0.0549  0.2432
    5PEO   H041 2873   3.977   0.066   0.003 -0.8079 -2.7781 -0.8820
    5PEO   H042 2874   4.037   0.036  -0.151 -3.2372 -1.7881 -0.7820
    5PEO   C043 2875   3.970   0.105  -0.100 -1.1352 -0.2614  0.0503
    5PEO   C044 2876   3.824   0.077  -0.138  0.3495 -0.2682 -0.2513
    5PEO   H045 2877   3.793   0.106  -0.240 -1.4307  1.2623  0.6633
    5PEO   H046 2878   3.804  -0.030  -0.149  3.2931 -0.9641  0.3328
    5PEO   O047 2879   3.729   0.151  -0.056  0.2626 -0.1348 -0.0820
    5PEO   H048 2880   3.579   0.089  -0.194  1.1074 -0.9471  1.1290
    5PEO   H049 2881   3.519   0.182  -0.054 -2.1531 -1.9509 -0.2245
    5PEO   C04A 2882   3.594   0.108  -0.087 -0.0217 -0.5395  1.2311
    5PEO   C04B 2883   3.555  -0.012  -0.001  0.6156  0.2959  0.2063
    5PEO   H04C 2884   3.460  -0.056  -0.035  1.2595  0.6811 -2.2683
    5PEO   H04D 2885   3.633  -0.089  -0.013 -2.2091 -2.5556 -1.2311
    5PEO   O04E 2886   3.532   0.026   0.135  0.7065 -0.8175 -0.0154
    5PEO   H04F 2887   3.681   0.135   0.222 -1.6848  0.1758  0.2723
    5PEO   H050 2888   3.731  -0.034   0.176 -0.3003  0.7931 -2.6531
    5PEO   C051 2889   3.650   0.029   0.216  0.0780 -0.3627  0.1477
    5PEO   C052 2890   3.602  -0.009   0.350 -0.1515 -1.0316 -0.4106
    5PEO   H053 2891   3.681   0.013   0.422  0.5845  0.9550 -1.7573
    5PEO   H054 2892   3.519   0.058   0.379 -0.1518 -1.5431  0.8367
    5PEO   O055 2893   3.547  -0.144   0.348  0.1585 -0.4868 -0.5680
    5PEO   H056 2894   3.465  -0.127   0.550 -1.1782 -2.3477  2.0371
    5PEO   H057 2895   3.620  -0.198   0.540  0.7679  1.6611 -1.1046
    5PEO   C058 2896   3.526  -0.191   0.484 -0.1167  0.4598  0.1412
    5PEO   C059 2897   3.456  -0.333   0.477  0.0459 -0.3451 -0.5943
    5PEO   H05A 2898   3.521  -0.402   0.421  0.6246 -0.5376  0.2759
    5PEO   H05B 2899   3.445  -0.381   0.576  0.3985 -1.6818 -1.1856
    5PEO   O05C 2900   3.339  -0.314   0.402  0.0461 -0.6322  0.0748
    5PEO   H05D 2901   3.317  -0.521   0.389 -0.0849 -0.7678 -0.3777
    5PEO   H05E 2902   3.193  -0.431   0.305  0.2618 -1.3200 -0.0586
    5PEO   C05F 2903   3.254  -0.431   0.396  0.3155 -0.5063 -0.0875
    5PEO   C060 2904   3.172  -0.442   0.526 -0.1589 -0.6122 -0.1160
    5PEO   H061 2905   3.166  -0.340   0.568 -0.2843 -0.7363  0.1771
    5PEO   H062 2906   3.072  -0.485   0.511 -0.6976  0.2270  0.8851
    5PEO   O063 2907   3.255  -0.526   0.609 -0.1515 -0.2850  0.3181
    5PEO   H064 2908   3.141  -0.547   0.783  0.9561  0.2315  3.8481
    5PEO   H065 2909   3.228  -0.386   0.769 -1.1051 -0.2756  1.4228
    5PEO   C066 2910   3.233  -0.495   0.753 -0.0345 -0.0235 -0.1932
    5PEO   C067 2911   3.355  -0.553   0.841  0.4445  0.2059 -0.7161
    5PEO   H068 2912   3.345  -0.533   0.948 -0.4158  0.4274 -0.8254
    5PEO   H069 2913   3.350  -0.663   0.834 -1.5861  0.2110 -0.1958
    5PEO   O06A 2914   3.473  -0.505   0.793  0.0506 -0.3587 -0.0449
    5PEO   H06B 2915   3.621  -0.640   0.884 -0.4436  0.2878  1.1193
    5PEO   H06C 2916   3.568  -0.496   0.981  3.0876  1.4597  1.1523
    5PEO   C06D 2917   3.585  -0.536   0.880 -0.0546  0.4192  0.9425
    5PEO   C06E 2918   3.696  -0.445   0.827 -0.5175  1.0496 -1.0279
    5PEO   H06F 2919   3.786  -0.481   0.878 -1.2534  1.4778  0.6479
    5PEO   H070 2920   3.710  -0.458   0.718 -0.0042 -0.4360 -0.8007
    5PEO   O071 2921   3.673  -0.306   0.857 -0.4837  0.7362 -0.0164
    5PEO   H072 2922   3.844  -0.252   0.739  0.1021 -1.0739  1.1823
    5PEO   H073 2923   3.878  -0.270   0.893 -0.0581 -1.1644  0.3184
    5PEO   C074 2924   3.792  -0.233   0.835  0.0059 -0.0251  0.9287
    5PEO   C075 2925   3.762  -0.077   0.838 -0.2937  0.4775 -0.4695
    5PEO   H076 2926   3.666  -0.053   0.885  0.6827  2.4571  0.6332
    5PEO   H077 2927   3.833  -0.031   0.907  1.9535 -0.8604 -1.7484
    5PEO   O078 2928   3.770  -0.011   0.710 -0.2410  0.2487 -0.2585
    5PEO   H079 2929   3.786   0.170   0.614 -0.0300  0.6731  0.3183
    5PEO   H07A 2930   3.872   0.168   0.777 -2.4673 -0.6998  2.9034
    5PEO   C07B 2931   3.788   0.130   0.716 -0.8020 -0.1262  0.0376
    5PEO   C07C 2932   3.676   0.212   0.788 -0.2444 -0.4452 -0.2679
    5PEO   H07D 2933   3.634   0.171   0.881  1.6282 -1.1382  0.3324
    5PEO   H07E 2934   3.725   0.304   0.823 -2.9651  1.4375 -1.0765
    5PEO   O07F 2935   3.576   0.247   0.696  0.6232 -0.4080  0.1590
    5PEO   H080 2936   3.515   0.441   0.733  2.0332 -0.3692 -1.7391
    5PEO   H081 2937   3.459   0.313   0.856 -1.0211  0.0982 -0.3727
    5PEO   C082 2938   3.484   0.337   0.751 -0.1903  0.5243 -0.0861
    5PEO   C083 2939   3.355   0.311   0.666  0.7095  0.7415  0.2366
    5PEO   H084 2940   3.290   0.400   0.671 -0.8914 -0.3999  0.3006
    5PEO   H085 2941   3.366   0.298   0.558  0.0185 -1.9627  0.4418
    5PEO   O086 2942   3.272   0.197   0.711 -0.1313 -0.2212  0.1029
    5PEO   H087 2943   3.421   0.040   0.731 -0.3606  0.5325  0.4408
    5PEO   H088 2944   3.340   0.054   0.581 -0.3331  1.0993 -0.9262
    5PEO   C089 2945   3.322   0.063   0.689 -0.2008 -0.7228 -0.7143
    5PEO   C08A 2946   3.214  -0.035   0.725 -0.4112  0.9763  0.1156
    5PEO   H08B 2947   3.123   0.016   0.690 -0.6626  0.4328 -0.0343
    5PEO   H08C 2948   3.227  -0.130   0.670  1.4426  0.6883  0.9721
    5PEO   O08D 2949   3.209  -0.063   0.865  0.3400  0.8906 -1.1160
    5PEO   H08E 2950   3.103  -0.235   0.870 -1.9055 -0.3763 -1.1680
    5PEO   H08F 2951   3.012  -0.087   0.830  1.3430  1.9488 -0.3400
    5PEO   C090 2952   3.088  -0.129   0.898  0.0664 -0.2959 -0.1977
    5PEO   C091 2953   3.048  -0.118   1.045  0.2371 -0.2531  0.4668
    5PEO   H092 2954   3.092  -0.027   1.088  1.6825 -0.5949 -0.2161
    5PEO   H093 2955   2.939  -0.108   1.049  0.1218 -0.0627 -1.7587
    5PEO   O094 2956   3.105  -0.237   1.115  0.1313 -0.6851 -0.4279
    5PEO   H095 2957   2.949  -0.231   1.248 -0.0358 -0.9161 -1.5868
    5PEO   H096 2958   3.092  -0.141   1.297  2.0454 -0.6689 -0.8948
    5PEO   C097 2959   3.059  -0.234   1.250 -0.0255 -0.3800 -0.1224
    5PEO   C098 2960   3.112  -0.356   1.326  0.5629 -0.4349  0.0569
    5PEO   H099 2961   3.057  -0.356   1.421 -0.0459  1.9492 -0.2193
    5PEO   H09A 2962   3.089  -0.449   1.272 -0.7857  1.7197 -3.3943
    5PEO   O09B 2963   3.257  -0.326   1.347  0.7844  0.0741 -0.0945
    5PEO   H09C 2964   3.316  -0.355   1.151  1.8806 -1.0406 -0.7869
    5PEO   H09D 2965   3.335  -0.496   1.255  0.6027  0.6241  1.6524
    5PEO   C09E 2966   3.348  -0.387   1.252 -0.4258  0.7273  0.5905
    5PEO   C09F 2967   3.496  -0.351   1.279  0.7302  0.1271  0.5178
    5PEO   H0A0 2968   3.498  -0.371   1.388  4.1791  2.9429  1.1612
    5PEO   H0A1 2969   3.566  -0.408   1.216 -1.4206 -1.1379 -0.8518
    5PEO   O0A2 2970   3.506  -0.207   1.262  0.4162 -0.1191 -0.0188
    5PEO   H0A3 2971   3.436  -0.193   1.075  0.2099 -2.2390  1.4640
    5PEO   H0A4 2972   3.621  -0.173   1.080  0.4166 -0.6488  0.3201
    5PEO   C0A5 2973   3.524  -0.153   1.128  0.3013 -0.3258 -0.0459
    5PEO   C0A6 2974   3.505   0.002   1.140 -0.2727  0.3639  0.4292
    5PEO   H0A7 2975   3.470   0.037   1.042  2.2381  0.8352 -0.3675
    5PEO   H0A8 2976   3.429   0.026   1.216  0.0047  2.5668  0.0689
    5PEO   O0A9 2977   3.630   0.058   1.174  0.2048 -0.1646 -0.0712
    5PEO   H0AA 2978   3.551   0.230   1.261  2.4415  2.3778  2.3457
    5PEO   H0AB 2979   3.589   0.252   1.089 -3.4622  1.1047  2.0785
    5PEO   C0AC 2980   3.620   0.199   1.181 -1.0325 -0.8428  0.3033
    5PEO   C0AD 2981   3.750   0.255   1.238  0.5538 -0.1548  0.6258
    5PEO   H0AE 2982   3.732   0.358   1.271  0.1293 -0.4937  1.4748
    5PEO   H0AF 2983   3.803   0.201   1.318 -0.2052 -0.5571  0.8662
    5PEO   O0B0 2984   3.847   0.282   1.123  0.3998  0.6889 -0.3833
    5PEO   H0B1 2985   4.006   0.293   1.238 -2.2386  0.2433  2.2197
    5PEO   H0B2 2986   3.928   0.443   1.228 -1.5748 -0.2974 -0.4866
    5PEO   C0B3 2987   3.955   0.357   1.165 -0.0558 -0.3038  0.1090
    5PEO   C0B4 2988   4.042   0.387   1.040  0.1713 -0.3586 -0.0451
    5PEO   H0B5 2989   4.131   0.427   1.091 -0.0337  1.2390 -0.8578
    5PEO   H0B6 2990   4.058   0.304   0.970 -0.8341 -1.0103  0.4776
    5PEO   O0B7 2991   3.976   0.493   0.967  0.0142  0.5525 -0.0166
    5PEO   H0B8 2992   4.046   0.422   0.783  2.4110 -0.3136 -1.7221
    5PEO   H0B9 2993   4.161   0.514   0.867 -0.2760 -0.6017 -0.3560
    5PEO   C0BA 2994   4.053   0.510   0.849 -0.2655 -1.0157 -0.3326
    5PEO   C0BB 2995   4.009   0.643   0.779  0.5042  0.4565  0.0239
    5PEO   H0BC 2996   4.078   0.649   0.694 -2.8397 -0.5980 -3.0500
    5PEO   H0BD 2997   3.909   0.624   0.736  1.0070 -2.5681 -0.0367
    5PEO   O0BE 2998   4.021   0.750   0.871  0.4839  0.0066  0.0502
    5PEO   H0BF 2999   3.844   0.849   0.829 -0.0668 -0.9479 -0.0807
    5PEO   H0C0 3000   3.979   0.873   0.720 -0.2405 -2.0147 -0.0424
    5PEO   C0C1 3001   3.953   0.864   0.827 -0.0864 -0.7731  0.1089
    5PEO   C0C2 3002   4.011   0.987   0.902 -0.1651 -0.0402  0.2905
    5PEO   H0C3 3003   3.937   1.068   0.893 -0.7817 -0.7202 -0.9199
    5PEO   H0C4 3004   4.033   0.965   1.008  1.1754  0.3107  0.1042
    5PEO   O0C5 3005   4.135   1.020   0.838  0.1214 -0.3987 -0.6413
    5PEO   H0C6 3006   4.238   1.059   0.997  0.2494 -1.7048 -0.5810
    5PEO   H0C7 3007   4.153   1.202   0.935 -0.8139  0.2731 -2.3290
    5PEO   C0C8 3008   4.214   1.115   0.906  0.0344 -0.1485  0.3928
    5PEO   C0C9 3009   4.337   1.150   0.817 -0.1624  0.5303 -0.1399
    5PEO   H0CA 3010   4.415   1.195   0.880 -0.3628  1.3691 -0.4863
    5PEO   H0CB 3011   4.392   1.072   0.761  0.7959  0.7700  0.4323
    5PEO   O0CC 3012   4.296   1.248   0.722 -0.0428 -0.2867  0.4005
    5PEO   H0CD 3013   4.444   1.388   0.756  0.6176  0.4115 -0.1637
    5PEO   H0CE 3014   4.352   1.423   0.621  2.4249  1.1820  0.0552
    5PEO   C0CF 3015   4.397   1.336   0.672  0.6644  0.1590 -0.0362
    5PEO   C0D0 3016   4.493   1.272   0.571 -0.2160  0.2401 -0.7128
    5PEO   H0D1 3017   4.580   1.337   0.555  0.1647 -0.5236 -1.8639
    5PEO   H0D2 3018   4.532   1.178   0.613 -1.0067  0.1121 -0.2346
    5PEO   O0D3 3019   4.431   1.250   0.439 -0.5341  0.2579  0.1463
    5PEO   H0D4 3020   4.554   1.100   0.368 -0.8290 -0.2939  0.5108
    5PEO   H0D5 3021   4.608   1.274   0.340  0.3316 -0.0833 -3.5239
    5PEO   C0D6 3022   4.524   1.203   0.342  0.3555 -0.1763 -0.4810
    5PEO   C0D7 3023   4.463   1.202   0.200 -0.2575  0.6332 -0.4845
    5PEO   H0D8 3024   4.534   1.149   0.136  1.1830  1.5730  0.2884
    5PEO   H0D9 3025   4.373   1.138   0.201  1.1305 -1.4077 -0.9616
    5PEO   O0DA 3026   4.448   1.339   0.161 -1.0229 -0.0539  0.5480
    5PEO   H0DB 3027   4.271   1.290   0.046 -2.9310  1.9731 -4.8706
    5PEO   H0DC 3028   4.425   1.333  -0.043  0.1071  3.7037 -0.1657
    5PEO   C0DD 3029   4.361   1.354   0.044 -0.3682 -0.7542  0.7598
    5PEO   C0DE 3030   4.350   1.508   0.021  0.2415 -0.1842 -0.3408
    5PEO   H0DF 3031   4.421   1.565   0.082  0.3942  2.0346 -2.4239
    5PEO   H0E0 3032   4.377   1.521  -0.085  0.9517 -0.8121 -0.2475
    5PEO   O0E1 3033   4.208   1.547   0.045  0.5227  0.1622  0.7035
    5PEO   H0E2 3034   4.192   1.686  -0.116 -0.8438  0.1668 -0.5319
    5PEO   H0E3 3035   4.240   1.743   0.046  1.3450 -0.2959 -0.7798
    5PEO   C0E4 3036   4.173   1.675  -0.008  0.4820  0.1425 -0.2790
    5PEO   C0E5 3037   4.024   1.706   0.018  0.9848  0.0464  1.2441
    5PEO   H0E6 3038   4.001   1.707   0.125  1.7568  1.6387  1.4158
    5PEO   H0E7 3039   4.017   1.807  -0.023 -2.1164 -0.5120  0.1756
    5PEO   O0E8 3040   3.932   1.614  -0.050  0.5559  0.2378 -0.6582
    5PEO   H0E9 3041   3.791   1.702  -0.170  0.9874 -0.1781  0.3707
    5PEO   H0EA 3042   3.769   1.729   0.011 -0.0305 -0.7403  1.3649
    5PEO   C0EB 3043   3.800   1.659  -0.069 -0.1218  0.0772  0.5942
    5PEO   C0EC 3044   3.708   1.531  -0.052  1.3110 -0.2197 -0.1196
    5PEO   H0ED 3045   3.604   1.559  -0.074  1.4811  0.6923  0.1865
    5PEO   H0EE 3046   3.748   1.452  -0.118 -3.7146 -2.0561 -1.3894
    5PEO   O0EF 3047   3.713   1.484   0.088 -0.5055 -0.0685  0.1086
    5PEO   H0F0 3048   3.543   1.363   0.054  0.3613  1.8579 -1.6338
    5PEO   H0F1 3049   3.597   1.356   0.212 -0.6432 -0.9496 -1.3213
    5PEO   C0F2 3050   3.637   1.364   0.110  0.0238  0.1601 -0.9954
    5PEO   C0F3 3051   3.718   1.234   0.077 -0.0266 -0.9072 -0.1246
    5PEO   H0F4 3052   3.646   1.152   0.091 -1.1622  0.0339 -0.2323
    5PEO   H0F5 3053   3.767   1.233  -0.022 -0.8465  1.5911 -0.6245
    5PEO   O0F6 3054   3.815   1.220   0.179  0.5166 -0.2642  0.0286
    5PEO   H0F7 3055   3.904   1.414   0.177  2.3849  0.1951  1.5014
    5PEO   H0F8 3056   3.983   1.277   0.088 -2.9948 -1.1321 -1.8902
    5PEO   C0F9 3057   3.929   1.307   0.179 -0.0235 -0.4755 -0.1851
    5PEO   C0FA 3058   4.035   1.273   0.291  0.0989  0.0613 -0.2866
    5PEO   H0FB 3059   4.067   1.169   0.274 -0.9448 -0.4286  0.6113
    5PEO   H0FC 3060   4.133   1.322   0.280  2.4001 -3.3154  2.7596
    5PEO   O0FD 3061   3.976   1.302   0.416 -0.4441  0.0250  0.5462
    5PEO   H0FE 3062   4.155   1.253   0.520 -0.6930  0.4710  1.3281
    5PEO   H0FF 3063   4.034   1.133   0.507 -0.9468 -0.3392  2.5285
    5PEO   C100 3064   4.045   1.241   0.519 -0.6503 -0.0100 -0.0079
    5PEO   C101 3065   3.987   1.269   0.656  0.7454 -0.3222  0.4045
    5PEO   H102 3066   4.055   1.244   0.739  0.1816  3.1836  2.1235
    5PEO   H103 3067   3.955   1.374   0.662  0.6026 -0.4173  4.0072
    5PEO   O104 3068   3.874   1.175   0.652 -0.2751 -0.7191 -0.2451
    5PEO   H105 3069   3.754   1.324   0.738  3.3647  0.3327  0.4680
    5PEO   H106 3070   3.800   1.201   0.850 -3.0597  0.5203  0.9452
    5PEO   C107 3071   3.770   1.215   0.745  0.1851 -0.2747 -0.2052
    5PEO   C108 3072   3.633   1.145   0.725 -0.1122 -0.7061  0.1107
    5PEO   H109 3073   3.558   1.211   0.770 -0.2875  0.3104 -1.5925
    5PEO   H10A 3074   3.610   1.129   0.618  1.5462 -1.6141 -0.1521
    5PEO   O10B 3075   3.635   1.016   0.793  0.3794 -0.2072  0.6016
    5PEO   H10C 3076   3.480   0.893   0.722 -1.3010  1.1568 -0.4248
    5PEO   H10D 3077   3.426   1.026   0.831 -0.3776 -1.3966  2.7441
    5PEO   C10E 3078   3.506   0.953   0.810  0.2962  0.0388 -0.0871
    5PEO   C10F 3079   3.524   0.853   0.926 -0.2115  0.0004 -0.5354
    5PEO   H110 3080   3.589   0.899   1.002  3.3973 -0.3863 -3.1156
    5PEO   H111 3081   3.425   0.825   0.966 -0.2924  1.0658  0.0474
    5PEO   O112 3082   3.602   0.735   0.882  0.0102  0.8048  0.0013
    5PEO   H113 3083   3.662   0.553   0.934  1.1079  0.0360  0.4367
    5PEO   H114 3084   3.524   0.613   1.026  0.9570 -0.4170  0.8204
    5PEO   C115 3085   3.622   0.642   0.984  0.3154  0.1250 -0.3368
    5PEO   C116 3086   3.732   0.686   1.085  0.3377 -0.5557 -0.0068
    5PEO   H117 3087   3.789   0.596   1.111 -1.2092 -1.1617  1.5100
    5PEO   H118 3088   3.793   0.769   1.048 -1.0552  1.1369  1.3301
    5PEO   O119 3089   3.673   0.748   1.207 -0.1688  0.4399 -0.3227
    5PEO   H11A 3090   3.841   0.726   1.334 -0.5181 -0.3260 -0.1916
    5PEO   H11B 3091   3.703   0.819   1.411  1.5855  4.8807 -0.3255
    5PEO   C11C 3092   3.757   0.795   1.318  0.0791  0.3921 -0.2877
    5PEO   C11D 3093   3.823   0.930   1.272  0.3336 -1.4212 -0.5323
    5PEO   H11E 3094   3.898   0.965   1.343 -0.5583  1.2538 -0.7981
    5PEO   H11F 3095   3.862   0.919   1.170  2.3179 -1.8644  0.2291
    5PEO   O120 3096   3.724   1.034   1.294 -0.2650  0.2873  0.7314
    5PEO   H121 3097   3.657   1.231   1.268 -0.0700 -0.5532 -0.1339
    5PEO   H122 3098   3.762   1.169   1.139  0.2538  1.8374 -0.7121
    5PEO   C123 3099   3.746   1.170   1.248 -0.1042 -0.4173 -0.7020
    5PEO   C124 3100   3.861   1.235   1.320 -0.5610 -0.6033 -0.8694
    5PEO   H125 3101   3.964   1.202   1.299  0.8229  1.8414  1.4849
    5PEO   H126 3102   3.862   1.336   1.277 -2.7330 -0.2923 -0.2959
    5PEO   O127 3103   3.837   1.242   1.464 -0.5244  0.1363  1.2638
    5PEO   H128 3104   3.935   1.416   1.528  1.5356  0.2573  1.7929
    5PEO   H129 3105   4.046   1.293   1.487 -0.0411 -0.0523 -0.7460
    5PEO   C12A 3106   3.949   1.307   1.537  0.3060 -0.0924 -0.0555
    5PEO   C12B 3107   3.940   1.264   1.683  0.2107 -0.1427  0.9640
    5PEO   H12C 3108   3.925   1.155   1.680  4.4143 -0.9273 -3.2340
    5PEO   H12D 3109   4.039   1.273   1.730  1.3419  2.1593 -1.6056
    5PEO   O12E 3110   3.831   1.349   1.733 -0.1647  1.1842  0.0337
    5PEO   H12F 3111   3.892   1.365   1.921  1.2845 -0.8922 -1.1760
    5PEO   H130 3112   3.793   1.213   1.893 -0.4957  0.1640  0.7421
    5PEO   C131 3113   3.806   1.320   1.870  0.5791 -0.2239 -0.5964
    5PEO   C132 3114   3.678   1.404   1.915 -0.3573 -0.0447 -0.2685
    5PEO   H133 3115   3.605   1.415   1.833  1.0850 -0.8747 -1.7266
    5PEO   H134 3116   3.641   1.341   1.997  1.2752 -2.2163 -1.0931
    5PEO   O135 3117   3.718   1.540   1.956  0.5104  0.3582  0.5871
    5PEO   H136 3118   3.536   1.652   1.953 -0.6425  0.9453  0.8198
    5PEO   H137 3119   3.666   1.724   2.043 -2.0888  1.3683 -1.2228
    5PEO   C138 3120   3.619   1.627   2.021  0.2967 -0.0100 -0.6222
    5PEO   C139 3121   3.561   1.569   2.151 -0.8344 -1.3138 -0.9084
    5PEO   H13A 3122   3.650   1.527   2.199 -1.4490 -1.7502 -0.1204
    5PEO   H13B 3123   3.514   1.645   2.215  2.6898  1.0397 -0.8746
    5PEO   O13C 3124   3.460   1.473   2.130 -0.4024  0.4434 -0.0575
    5PEO   H13D 3125   3.340   1.568   2.001  1.1938  3.4931  2.0777
    5PEO   H13E 3126   3.288   1.600   2.166  1.1104  1.9931 -1.4047
    5PEO   C13F 3127   3.329   1.522   2.100  0.6528 -0.0134  0.5619
    5PEO   C140 3128   3.232   1.399   2.086 -0.6061  1.0037 -0.1930
    5PEO   H141 3129   3.176   1.367   2.176 -0.5253 -1.1004 -0.8531
    5PEO   H142 3130   3.164   1.446   2.014  0.2633 -0.0193 -1.7174
    5PEO   O143 3131   3.301   1.283   2.026 -0.1874  0.3925  0.3473
    5PEO   H144 3132   3.122   1.234   1.927  0.5517 -2.4317 -2.8529
    5PEO   H145 3133   3.165   1.133   2.062  0.5675 -0.7069 -1.0739
    5PEO   C146 3134   3.209   1.192   1.980  0.5332  0.4588 -0.2746
    5PEO   C147 3135   3.274   1.087   1.892  0.5228  0.9080 -0.7607
    5PEO   H148 3136   3.374   1.066   1.934  0.8547 -0.5463 -2.1699
    5PEO   H149 3137   3.209   0.999   1.885  1.0410  0.6700 -4.4905
    5PEO   O14A 3138   3.281   1.141   1.765 -0.3901  0.4723 -0.3430
    5PEO   H14B 3139   3.443   1.226   1.836  1.5865 -0.6143 -0.7967
    5PEO   H14C 3140   3.384   1.321   1.705  1.4822  0.2380 -1.0304
    5PEO   C14D 3141   3.401   1.217   1.735  0.2175  0.2120 -0.3279
    5PEO   C14E 3142   3.500   1.145   1.641 -0.2979  0.5893  0.4214
    5PEO   H14F 3143   3.446   1.116   1.550  0.0633  0.6743  0.1760
    5PEO   H150 3144   3.580   1.217   1.618  0.3158 -0.1272  0.2849
    5PEO   O151 3145   3.564   1.042   1.715  0.4582  0.4229  0.2993
    5PEO   H152 3146   3.734   1.033   1.598 -1.6267  0.9055  0.2212
    5PEO   H153 3147   3.615   0.898   1.566 -1.5168  0.9168  0.0568
    5PEO   C154 3148   3.662   0.963   1.641 -0.4058 -0.2731  0.4335
    5PEO   C155 3149   3.747   0.872   1.736 -0.5216  0.0244 -0.1606
    5PEO   H156 3150   3.834   0.835   1.679  1.1263 -0.1370  2.3176
    5PEO   H157 3151   3.789   0.932   1.818 -0.6960  0.0179 -0.0667
    5PEO   O158 3152   3.668   0.762   1.780 -0.0198 -0.3233 -0.0013
    5PEO   H159 3153   3.493   0.851   1.881 -2.2857 -3.6514 -1.1458
    5PEO   H15A 3154   3.638   0.821   1.980 -0.4295 -0.0793 -0.1228
    5PEO   C15B 3155   3.580   0.785   1.894 -0.3243 -0.9629  0.1622
    5PEO   C15C 3156   3.529   0.648   1.936 -0.5148 -0.1533 -0.2104
    5PEO   H15D 3157   3.500   0.657   2.042  0.7058 -0.6317  0.1756
    5PEO   H15E 3158   3.446   0.617   1.871  3.4642 -3.1569 -4.5436
    5PEO   O15F 3159   3.632   0.544   1.917 -0.0147  0.2738  0.3253
    5PEO   H160 3160   3.810   0.640   1.982 -1.1070 -0.2515 -0.4232
    5PEO   H161 3161   3.815   0.467   1.945  1.3464  0.9857  0.9941
    5PEO   C162 3162   3.755   0.546   1.994 -0.7826 -0.3179  0.6344
    5PEO   C163 3163   3.734   0.517   2.139 -0.0001  0.0753  0.2028
    5PEO   H164 3164   3.659   0.437   2.147  0.4566 -0.6007 -1.6745
    5PEO   H165 3165   3.822   0.467   2.182 -1.7554 -3.7245 -0.2414
    5PEO   O166 3166   3.697   0.639   2.211 -0.8030  0.2378 -1.0402
    5PEO   H167 3167   3.648   0.554   2.387  0.5449 -1.0478 -0.5668
    5PEO   H168 3168   3.508   0.554   2.287  0.5679 -0.3864 -0.6686
    5PEO   C169 3169   3.595   0.616   2.312  0.1321 -0.1828  0.4073
    5PEO   C16A 3170   3.545   0.752   2.378 -0.4918 -0.0623  0.7452
    5PEO   H16B 3171   3.498   0.718   2.471 -0.8759 -0.5462  0.3852
    5PEO   H16C 3172   3.619   0.831   2.399  0.7960 -1.0984  0.2944
    5PEO   O16D 3173   3.457   0.820   2.292  0.1312  0.3147  0.6556
    5PEO   H16E 3174   3.474   1.002   2.388 -1.1559  1.5665 -1.5523
    5PEO   H16F 3175   3.334   0.890   2.445 -2.4334 -1.7734 -1.9507
    5PEO   C170 3176   3.393   0.932   2.362 -0.7904  0.4360  0.2023
    5PEO   C171 3177   3.294   1.002   2.253  0.4533  0.8815 -0.2715
    5PEO   H172 3178   3.277   1.107   2.280  1.1378  0.6768  1.0352
    5PEO   H173 3179   3.347   1.007   2.157  1.2525 -2.2428 -0.1071
    5PEO   O174 3180   3.165   0.925   2.235 -0.6697 -0.3443 -0.0211
    5PEO   H175 3181   3.191   0.716   2.238 -0.2808 -1.4794 -3.5796
    5PEO   H176 3182   3.236   0.819   2.085 -1.3159  2.1099 -0.8426
    5PEO   C177 3183   3.169   0.799   2.170 -0.9221  0.7365 -0.8219
    5PEO   C178 3184   3.031   0.770   2.118  0.1453  0.1882 -0.6898
    5PEO   H179 3185   3.043   0.666   2.083 -0.6165 -0.7608  1.6990
    5PEO   H17A 3186   2.956   0.767   2.198 -0.1569 -1.0519 -1.0067
    5PEO   O17B 3187   3.008   0.876   2.021 -0.0217  0.2499 -0.6686
    5PEO   H17C 3188   2.796   0.873   2.047 -0.2546  1.4447  0.4169
    5PEO   H17D 3189   2.870   0.830   1.882  0.7957 -1.0064  0.4238
    5PEO   C17E 3190   2.875   0.892   1.972 -0.5946  0.1818 -0.2855
    5PEO   C17F 3191   2.843   1.034   1.927 -0.4778 -1.0245  0.3717
    5PEO   H180 3192   2.736   1.051   1.908  0.1344 -0.0011 -2.8291
    5PEO   H181 3193   2.880   1.103   2.004 -2.1640 -0.2498  0.5077
    5PEO   O182 3194   2.915   1.046   1.805 -0.7264 -0.2523 -0.2644
    5PEO   H183 3195   2.957   1.248   1.830 -0.3921 -0.0265  0.5013
    5PEO   H184 3196   2.805   1.205   1.743  0.5580  2.5907  0.7209
    5PEO   C185 3197   2.912   1.181   1.756  0.0217 -0.2120  0.4174
    5PEO   C186 3198   2.973   1.189   1.611  0.4945 -0.1564 -0.3322
    5PEO   H187 3199   2.962   1.292   1.573  0.7518 -0.2305 -0.6075
    5PEO   H188 3200   3.079   1.161   1.609  0.6378  0.4024 -0.7249
    5PEO   O189 3201   2.896   1.095   1.531  0.0969  0.2482  0.4542
    5PEO   H18A 3202   3.004   1.082   1.347 -0.0186  0.9985 -0.0722
    5PEO   H18B 3203   2.924   1.226   1.356 -0.0214 -0.7954 -3.7120
    5PEO   C18C 3204   2.909   1.121   1.386 -0.1518  0.2118  0.4168
    5PEO   C18D 3205   2.787   1.066   1.315 -0.3956 -0.2918 -0.3717
    5PEO   H18E 3206   2.804   1.090   1.209 -0.3642  1.4916  0.0050
    5PEO   H18F 3207   2.778   0.962   1.353  0.4506 -0.0995  0.3877
    5PEO   O190 3208   2.675   1.145   1.363 -0.0298 -0.6531 -0.3232
    5PEO   H191 3209   2.539   1.032   1.248  0.0137  0.6783 -1.4240
    5PEO   H192 3210   2.546   1.201   1.206 -2.7519 -1.5624 -1.3216
    5PEO   C193 3211   2.547   1.132   1.292 -0.6106  0.0989  0.0855
    5PEO   C194 3212   2.421   1.167   1.378  0.7313  0.1133 -0.2166
    5PEO   H195 3213   2.431   1.251   1.449 -1.9768  2.9385 -2.8354
    5PEO   H196 3214   2.340   1.189   1.308  1.6728  0.5852 -1.1860
    5PEO   O197 3215   2.393   1.044   1.458  0.5964 -0.3762  0.1249
    5PEO   H198 3216   2.416   1.114   1.656  0.2966 -0.1484  0.7479
    5PEO   H199 3217   2.564   1.056   1.576  0.2683  0.4955  1.0683
    5PEO   C19A 3218   2.456   1.037   1.588  0.0761  0.6610 -0.3072
    5PEO   C19B 3219   2.462   0.899   1.648  0.1350 -0.1567 -0.7220
    5PEO   H19C 3220   2.499   0.836   1.566 -2.1832 -0.5100 -1.5506
    5PEO   H19D 3221   2.542   0.892   1.723 -0.0471 -0.6273 -0.5732
    5PEO   O19E 3222   2.335   0.843   1.681 -0.3680 -0.3380 -0.0034
    5PEO   H19F 3223   2.448   0.697   1.788  3.1879  1.1599 -2.9822
    5PEO   H1A0 3224   2.393   0.646   1.644  2.7537 -0.0831 -0.5249
    5PEO   C1A1 3225   2.357   0.709   1.727  1.4093 -0.3958 -0.8342
    5PEO   C1A2 3226   2.228   0.645   1.780  0.0206 -0.1584  0.1865
    5PEO   H1A3 3227   2.146   0.715   1.756  1.0066  0.1215 -2.6637
    5PEO   H1A4 3228   2.208   0.542   1.747  0.4226  0.0116 -0.5984
    5PEO   O1A5 3229   2.231   0.642   1.923  0.1111  0.6367  0.0745
    5PEO   H1A6 3230   2.096   0.471   1.949 -1.2560  0.0501  0.5732
    5PEO   H1A7 3231   2.030   0.635   1.988  1.5034  1.9275  2.6144
    5PEO   C1A8 3232   2.118   0.570   1.991  0.2634 -0.0500  0.0710
    5PEO   C1A9 3233   2.165   0.531   2.126 -0.3895 -0.3208 -0.8818
    5PEO   H1AA 3234   2.212   0.610   2.185 -0.4178 -0.2389 -0.9680
    5PEO   H1AB 3235   2.087   0.494   2.194 -0.4380  0.5229 -0.4715
    5PEO   O1AC 3236   2.262   0.424   2.107 -0.0686  0.3316 -0.1624
    5PEO   H1AD 3237   2.361   0.442   2.296  0.6349  0.2304 -1.5212
    5PEO   H1AE 3238   2.408   0.312   2.193  0.0403  0.0902  0.9316
    5PEO   C1AF 3239   2.319   0.367   2.227 -0.6290 -0.0851 -0.4490
    5PEO   C1B0 3240   2.222   0.272   2.293  0.2978  0.6912  0.0934
    5PEO   H1B1 3241   2.250   0.228   2.389 -0.8126  1.8961  1.0136
    5PEO   H1B2 3242   2.134   0.329   2.327 -0.9431 -1.7426  1.2243
    5PEO   O1B3 3243   2.183   0.170   2.192 -0.3785  0.5742 -0.0300
    5PEO   H1B4 3244   1.992   0.196   2.252  1.5936  1.3630  0.9518
    5PEO   H1B5 3245   2.051   0.038   2.294  0.9345 -1.4444 -1.3003
    5PEO   C1B6 3246   2.047   0.110   2.211 -0.5198  0.2998  0.1894
    5PEO   C1B7 3247   1.993   0.036   2.090  0.5807 -0.5414  0.7219
    5PEO   H1B8 3248   1.883   0.027   2.100  0.3564  0.7407 -0.3525
    5PEO   H1B9 3249   2.007   0.099   2.001  2.2656 -0.1241  1.2615
    5PEO   O1BA 3250   2.048  -0.090   2.070 -0.3442  0.8284  0.0459
    5PEO   H1BB 3251   2.260  -0.034   2.063 -0.0422 -0.5862  0.8451
    5PEO   H1BC 3252   2.181  -0.084   1.917  0.5397  2.8636  1.4220
    5PEO   C1BD 3253   2.186  -0.106   2.025 -0.3245 -0.3419  0.9283
    5PEO   C1BE 3254   2.229  -0.259   2.041 -0.2124  0.3120 -0.7473
    5PEO   H1BF 3255   2.168  -0.337   1.994  3.2923 -1.5569 -2.5795
    5PEO   H1C0 3256   2.324  -0.258   1.985 -0.1651  0.8653 -0.6564
    5PEO   O1C1 3257   2.280  -0.284   2.178  0.4253 -0.1189 -0.3947
    5PEO   H1C2 3258   2.095  -0.304   2.280 -0.3029 -0.6719  4.0421
    5PEO   H1C3 3259   2.157  -0.148   2.283 -1.9217 -0.0855 -2.8566
    5PEO   C1C4 3260   2.192  -0.252   2.285 -0.5464  0.3034  0.9298
    5PEO   C1C5 3261   2.240  -0.289   2.420  0.7044 -0.0032  0.4204
    5PEO   H1C6 3262   2.301  -0.208   2.462 -0.8143  1.3096  0.1974
    5PEO   H1C7 3263   2.159  -0.305   2.493  1.1030  0.9875  1.1039
    5PEO   O1C8 3264   2.314  -0.413   2.424  0.0714 -1.0511  0.7738
    5PEO   H1C9 3265   2.390  -0.568   2.547 -0.1989  0.1925  2.1949
    5PEO   H1CA 3266   2.241  -0.486   2.604  0.5098 -1.9373  0.5563
    5PEO   C1CB 3267   2.338  -0.472   2.554  0.0454  0.5164  0.2459
    5PEO   C1CC 3268   2.421  -0.379   2.640 -1.6281  0.0990 -0.3870
    5PEO   H1CD 3269   2.485  -0.423   2.717 -1.5616  1.0778  0.1363
    5PEO   H1CE 3270   2.482  -0.319   2.570  0.9513 -0.5126  1.2105
    5PEO   O1CF 3271   2.337  -0.291   2.719 -0.8363  0.1204 -0.3317
    5PEO   H1D0 3272   2.364  -0.177   2.886  3.6766  0.8875 -1.2459
    5PEO   H1D1 3273   2.483  -0.307   2.872 -1.3441 -3.7077  0.0789
    5PEO   C1D2 3274   2.377  -0.284   2.861 -0.6643 -0.1434  0.0043
    5PEO   C1D3 3275   2.299  -0.384   2.948 -0.0382  0.4627 -0.7713
    5PEO   H1D4 3276   2.334  -0.356   3.049  1.3382  2.2578 -1.6845
    5PEO   H1D5 3277   2.191  -0.364   2.945  0.0506  1.0432 -0.3252
    5PEO   O1D6 3278   2.339  -0.512   2.901  0.0058 -0.2150  0.5750
    5PEO   H1D7 3279   2.174  -0.616   2.980  0.0334  0.3487  3.0620
    5PEO   H1D8 3280   2.327  -0.611   3.077  0.6403 -1.6225 -0.0376
    5PEO   C1D9 3281   2.284  -0.623   2.977 -0.0751 -1.3282  0.2307
    5PEO   C1DA 3282   2.340  -0.759   2.928  0.3038 -0.0914  0.4127
    5PEO   H1DB 3283   2.450  -0.758   2.923  0.2637  1.3995 -2.3921
    5PEO   H1DC 3284   2.286  -0.820   3.002  0.4941  0.2357  0.8252
    5PEO   O1DD 3285   2.288  -0.782   2.794  0.2165 -0.6850 -1.0968
    5PEO   H1DE 3286   2.308  -0.988   2.810 -0.8068 -0.0810 -0.7118
    5PEO   H1DF 3287   2.432  -0.901   2.720 -0.1626  1.1692  0.0623
    5PEO   C1E0 3288   2.324  -0.905   2.739 -0.1710  0.3052 -0.1363
    5PEO   C1E1 3289   2.232  -0.934   2.618 -0.9682 -0.4750 -0.1256
    5PEO   H1E2 3290   2.248  -1.035   2.576 -0.8496 -1.0958  1.3512
    5PEO   H1E3 3291   2.132  -0.936   2.663 -0.3147 -2.6434  1.4167
    5PEO   O1E4 3292   2.253  -0.823   2.525  0.3790 -0.0682  0.1586
    5PEO   H1E5 3293   2.101  -0.869   2.386  0.7921 -1.4201 -0.8669
    5PEO   H1E6 3294   2.269  -0.927   2.343 -0.1803 -0.7917  0.2357
    5PEO   C1E7 3295   2.209  -0.846   2.387  0.5068  0.0070 -0.2689
    5PEO   C1E8 3296   2.235  -0.704   2.330 -0.0782  0.1654 -0.0709
    5PEO   H1E9 3297   2.154  -0.634   2.354  0.4851  0.2120  1.8135
    5PEO   H1EA 3298   2.328  -0.658   2.366 -1.7002  1.3773  2.9310
    5PEO   O1EB 3299   2.240  -0.725   2.196  0.1787 -0.5854  0.4124
    5PEO   H1EC 3300   2.368  -0.571   2.151  1.8125 -1.4135 -1.6714
    5PEO   H1ED 3301   2.190  -0.528   2.163 -0.6463 -0.6676 -0.7915
    5PEO   C1EE 3302   2.264  -0.603   2.131  0.7942 -0.1301  1.0997
    5PEO   C1EF 3303   2.239  -0.648   1.983  0.1366  0.6622  0.4374
    5PEO   H1F0 3304   2.282  -0.748   1.969  1.1239  1.2036 -0.6560
    5PEO   H1F1 3305   2.134  -0.667   1.957  0.5286  1.2437 -1.8627
    5PEO   O1F2 3306   2.290  -0.563   1.882  0.1241  0.0052  0.1770
    5PEO   H1F3 3307   2.183  -0.646   1.706  1.0874  1.0760 -0.2113
    5PEO   H1F4 3308   2.355  -0.680   1.723 -1.4377 -2.6160  0.1480
    5PEO   C1F5 3309   2.277  -0.606   1.746  1.1733  0.2865  0.4011
    5PEO   C1F6 3310   2.316  -0.492   1.652 -0.8367  0.6434 -0.4119
    5PEO   H1F7 3311   2.418  -0.462   1.679  0.3333 -1.6788 -1.9989
    5PEO   H1F8 3312   2.332  -0.509   1.544  0.2413  2.1140 -0.5174
    5PEO   O1F9 3313   2.241  -0.374   1.677 -0.7577 -0.1882  0.3356
    5PEO   H1FA 3314   2.313  -0.300   1.491  0.9760 -1.1758  0.7888
    5PEO   H1FB 3315   2.393  -0.237   1.640 -0.0791 -0.3691  0.6421
    5PEO   C1FC 3316   2.297  -0.269   1.595  0.0571 -0.5347  0.4671
    5PEO   C1FD 3317   2.191  -0.156   1.590  0.5491 -0.4604  0.4975
    5PEO   H1FE 3318   2.189  -0.115   1.487 -0.7555 -3.3109 -0.7160
    5PEO   H1FF 3319   2.094  -0.204   1.610  0.7582 -0.5280  1.3601
    5PEO   O200 3320   2.230  -0.052   1.679  0.3404 -0.5985  0.0796
    5PEO   H201 3321   2.037   0.018   1.747 -0.6648  0.7365 -0.0559
    5PEO   H202 3322   2.092   0.080   1.592  1.8717  2.6866 -0.0613
    5PEO   C203 3323   2.126   0.051   1.692 -0.5489  1.2561  0.4282
    5PEO   C204 3324   2.188   0.157   1.784  0.1827 -0.2565 -0.5234
    5PEO   H205 3325   2.133   0.253   1.789  2.7200  1.2415  1.2463
    5PEO   H206 3326   2.200   0.113   1.884  0.6843 -1.3192 -1.0386
    5PEO   O207 3327   2.316   0.198   1.736  0.1654  0.0715 -0.1633
    5PEO   H208 3328   2.351   0.276   1.930 -1.9494 -0.9078 -0.6844
    5PEO   H209 3329   2.355   0.401   1.800  1.7836  0.1924  1.1582
    5PEO   C20A 3330   2.378   0.297   1.826 -0.2369 -0.6536 -0.2180
    5PEO   C20B 3331   2.531   0.297   1.806 -0.1450 -0.2996 -0.4643
    5PEO   H20C 3332   2.576   0.345   1.894  1.3887  0.3519 -1.5690
    5PEO   H20D 3333   2.571   0.198   1.780  1.6549 -0.3484  2.0989
    5PEO   O20E 3334   2.563   0.393   1.705  0.2107  0.0532 -0.5572
    5PEO   H20F 3335   2.716   0.291   1.612  1.6994  0.4870 -0.3049
    5PEO   H210 3336   2.765   0.405   1.741  1.7896  0.4989 -0.9088
    5PEO   C211 3337   2.696   0.390   1.657  0.6367  0.1181  0.0678
    5PEO   C212 3338   2.724   0.493   1.551  0.6754  0.5053 -0.2425
    5PEO   H213 3339   2.798   0.458   1.478  0.6630 -0.6564  0.2867
    5PEO   H214 3340   2.630   0.522   1.502  0.5966 -2.1235 -1.8304
    5PEO   O215 3341   2.780   0.606   1.626 -0.4025 -0.5778 -0.2131
    5PEO   H216 3342   2.801   0.808   1.610  0.9313  0.6719 -1.4440
    5PEO   H217 3343   2.696   0.736   1.481  0.1408  1.3836 -0.7274
    5PEO   C218 3344   2.786   0.723   1.542 -0.8497 -0.6102  0.4250
    5PEO   C219 3345   2.908   0.709   1.450  0.6220 -0.1896 -0.1738
    5PEO   H21A 3346   2.942   0.811   1.426 -0.1621  0.0768 -0.1663
    5PEO   H21B 3347   2.986   0.651   1.503  0.5593  0.6520  0.8739
    5PEO   O21C 3348   2.864   0.647   1.327 -1.1061  0.1857  0.2931
    5PEO   H21D 3349   2.914   0.559   1.156 -1.4937  2.9239 -1.2841
    5PEO   H21E 3350   3.049   0.543   1.273  0.7832  0.5636 -0.8692
    5PEO   C21F 3351   2.974   0.612   1.231 -0.4024 -0.0878  0.1198
    5PEO   C220 3352   3.036   0.732   1.164 -0.1687  0.3496 -0.2407
    5PEO   H221 3353   3.078   0.791   1.247 -0.8132 -0.1540  0.4596
    5PEO   H222 3354   3.121   0.688   1.110 -1.0313  0.7146 -1.9667
    5PEO   O223 3355   2.944   0.790   1.081 -0.1775 -0.3364  0.1734
    5PEO   H224 3356   3.092   0.890   0.954  3.0770  1.9458  2.3053
    5PEO   H225 3357   3.034   0.983   1.091  0.8233 -1.5247  0.6962
    5PEO   C226 3358   3.001   0.913   1.013  0.4089  0.2732 -0.8215
    5PEO   C227 3359   2.892   0.960   0.911 -0.1322  0.8702 -0.3881
    5PEO   H228 3360   2.797   0.972   0.966 -0.7125 -1.5641 -0.7550
    5PEO   H229 3361   2.923   1.058   0.874  2.1786  0.8113  1.1945
    5PEO   O22A 3362   2.863   0.875   0.803 -0.2575  0.3109 -0.4092
    5PEO   H22B 3363   2.726   1.023   0.716  2.8713  0.5615  1.1591
    5PEO   H22C 3364   2.653   0.894   0.794  1.7660  0.8657  4.4696
    5PEO   C22D 3365   2.742   0.916   0.735 -0.6550 -0.3337 -0.1067
    5PEO   C22E 3366   2.748   0.836   0.606  0.5024 -0.2292 -0.2831
    5PEO   H22F 3367   2.748   0.727   0.619 -0.9890 -0.1974  0.1759
    5PEO   H230 3368   2.671   0.868   0.534  0.8442  2.4179  0.4225
    5PEO   O231 3369   2.876   0.862   0.539 -0.4383 -0.2378  0.5777
    5PEO   H232 3370   2.797   0.882   0.343  1.8054  0.4236 -0.6754
    5PEO   H233 3371   2.825   0.715   0.387 -1.9858  0.7447 -1.2771
    5PEO   C234 3372   2.868   0.816   0.396  0.4029 -0.3168  0.3282
    5PEO   C235 3373   2.993   0.830   0.310 -0.5040 -0.2120  0.0614
    5PEO   H236 3374   3.087   0.807   0.362 -0.9787 -1.0582  0.5848
    5PEO   H237 3375   2.992   0.772   0.217  1.7350 -0.9325  0.4352
    5PEO   O238 3376   2.990   0.972   0.278 -0.0444  0.1274  0.6857
    5PEO   H239 3377   3.115   0.941   0.120  0.3877  1.5665 -0.8649
    5PEO   H23A 3378   3.190   1.008   0.271 -0.8987 -0.2719  0.8051
    5PEO   C23B 3379   3.104   1.014   0.202 -0.0696  0.7575 -0.1796
    5PEO   C23C 3380   3.081   1.154   0.147  0.1957 -0.1910 -0.2819
    5PEO   H23D 3381   3.047   1.228   0.222 -1.0611 -0.3916 -0.6410
    5PEO   H23E 3382   3.180   1.185   0.110  0.7204  0.8772  1.8413
    5PEO   O23F 3383   2.993   1.146   0.029  0.2262  0.4455  0.4725
    5PEO   H240 3384   3.112   1.268  -0.105  0.6462 -3.6155  0.3238
    5PEO   H241 3385   2.982   1.356  -0.015  2.2204  1.3902 -1.4056
    5PEO   C242 3386   3.010   1.263  -0.067 -0.0197  0.1527 -0.4907
    5PEO   C243 3387   2.908   1.240  -0.175  0.1652  0.0105 -0.2920
    5PEO   H244 3388   2.809   1.234  -0.127 -0.1666 -3.4368 -1.1416
    5PEO   H245 3389   2.917   1.324  -0.246  3.9147  0.4843  0.5719
    5PEO   O246 3390   2.928   1.111  -0.238  0.1356  0.5216 -0.0560
    5PEO   H247 3391   3.128   1.125  -0.278  0.9609  0.3207 -1.9857
    5PEO   H248 3392   3.020   1.147  -0.420 -0.2678 -2.0267 -1.2098
    5PEO   C249 3393   3.033   1.095  -0.325 -0.3040  0.5309  0.3004
    5PEO   C24A 3394   3.048   0.948  -0.367 -0.2495  0.3235 -1.0641
    5PEO   H24B 3395   2.996   0.921  -0.460  0.6441  1.5667 -1.9600
    5PEO   H24C 3396   3.152   0.937  -0.402 -0.3154  0.3589 -1.2714
    5PEO   O24D 3397   3.042   0.858  -0.255  0.3637 -0.3933 -0.3436
    5PEO   H24E 3398   2.882   0.722  -0.293  1.1467  0.9054 -1.4976
    5PEO   H24F 3399   2.843   0.893  -0.232 -0.3091 -0.5229  1.4812
    5PEO   C250 3400   2.909   0.805  -0.227 -0.2917 -0.5360  1.0671
    5PEO   C251 3401   2.909   0.770  -0.068 -0.2664 -0.3795  0.8884
    5PEO   H252 3402   2.975   0.842  -0.018  0.5566 -0.5814  0.0958
    5PEO   H253 3403   2.803   0.787  -0.040 -0.0336  2.4631  0.3670
    5PEO   O254 3404   2.952   0.638  -0.034  0.3260 -0.6674  0.7582
    5PEO   H255 3405   3.156   0.694   0.006  1.1557 -0.8339  0.8759
    5PEO   H256 3406   3.108   0.619  -0.153  0.4792  0.6995  0.5850
    5PEO   C257 3407   3.091   0.621  -0.045  0.0040  0.4043  0.5164
    5PEO   C258 3408   3.115   0.489   0.023 -0.0995 -0.8945  0.4632
    5PEO   H259 3409   3.042   0.417  -0.018  0.4622 -0.9867 -0.3948
    5PEO   H25A 3410   3.219   0.458   0.010  0.6200  1.9673 -1.4862
    5PEO   O25B 3411   3.092   0.514   0.165  0.7815 -0.6687 -0.0886
    5PEO   H25C 3412   3.255   0.401   0.246  0.5619  3.3477  4.2556
    5PEO   H25D 3413   3.094   0.326   0.243 -2.1875  1.0797  1.6122
    5PEO   C25E 3414   3.148   0.421   0.259 -0.5827  0.3297  0.8806
    5PEO   C25F 3415   3.139   0.467   0.399  0.0822 -0.0131  0.0814
    5PEO   H260 3416   3.031   0.481   0.414 -0.6182 -2.3995 -1.9596
    5PEO   H261 3417   3.183   0.395   0.469  0.5459 -1.1036 -1.2753
    5PEO   O262 3418   3.196   0.593   0.412 -0.9044  0.2429  0.0873
    5PEO   H263 3419   3.257   0.746   0.548 -0.8874  0.3482 -0.5515
    5PEO   H264 3420   3.283   0.581   0.614 -0.7446 -1.4250 -0.8406
    5PEO   C265 3421   3.218   0.643   0.551 -0.1479  0.0740 -0.0254
    5PEO   C266 3422   3.084   0.651   0.621  0.1206  0.0717 -0.3163
    5PEO   H267 3423   3.065   0.749   0.667 -0.4921  0.3962 -1.2234
    5PEO   H268 3424   2.994   0.625   0.564 -1.3716 -0.7612  2.2515
    5PEO   O269 3425   3.093   0.550   0.727  0.3344 -0.7756 -0.2627
    5PEO   H26A 3426   2.882   0.591   0.772 -0.1733  2.7269  2.6769
    5PEO   H26B 3427   3.005   0.630   0.881 -0.8034 -0.2463  1.2976
    5PEO   C26C 3428   2.976   0.549   0.813 -0.0150  0.3995  0.1544
    5PEO   C26D 3429   2.969   0.409   0.885  0.7362  0.5808 -0.0086
    5PEO   H26E 3430   3.066   0.361   0.906  0.2329 -0.3403  0.2937
    5PEO   H26F 3431   2.922   0.430   0.982  1.1483  0.5630  0.1946
    5PEO   O270 3432   2.883   0.325   0.797  0.4762  0.1222  0.7804
    5PEO   H271 3433   2.930   0.166   0.932 -1.9650  1.6456  1.5109
    5PEO   H272 3434   2.902   0.124   0.751 -0.5524  2.3727 -1.7277
    5PEO   C273 3435   2.880   0.190   0.836 -0.5061 -0.0312  0.2750
    5PEO   C274 3436   2.737   0.161   0.876 -0.6903  0.7179 -0.1716
    5PEO   H275 3437   2.743   0.081   0.951 -0.7537  1.4618  0.6559
    5PEO   H276 3438   2.674   0.242   0.917 -2.0992  0.2566 -1.3304
    5PEO   O277 3439   2.672   0.106   0.759  0.2587 -0.3657  0.2901
    5PEO   H278 3440   2.572  -0.025   0.880  0.5081  1.0555  0.5468
    5PEO   H279 3441   2.531  -0.031   0.705 -2.4703  0.2394  2.1198
    5PEO   C27A 3442   2.553   0.035   0.790  0.1645  1.2621  0.7530
    5PEO   C27B 3443   2.434   0.126   0.803 -0.0758 -0.5589  0.4934
    5PEO   H27C 3444   2.439   0.203   0.725  0.6748 -0.3860  0.7070
    5PEO   H27D 3445   2.339   0.075   0.783  0.0980 -0.5191 -0.4704
    5PEO   O27E 3446   2.438   0.177   0.938 -0.0279 -0.2555  0.4816
    5PEO   H27F 3447   2.361   0.378   0.940  1.9609 -1.1440 -1.9911
    5PEO   H280 3448   2.338   0.293   1.089  1.1533 -0.7568  0.2592
    5PEO   C281 3449   2.338   0.278   0.980  0.2128  0.0199  0.1404
    5PEO   C282 3450   2.199   0.244   0.937  0.1660  0.4701  0.9230
    5PEO   H283 3451   2.164   0.141   0.953  1.0748  0.0251  0.1213
    5PEO   H284 3452   2.131   0.310   0.995 -2.1682 -1.3379  0.4075
    5PEO   O285 3453   2.191   0.279   0.797  0.6786  0.1388 -0.5063
    5PEO   H286 3454   2.059   0.119   0.775  0.1097  0.8478  1.4559
    5PEO   H287 3455   2.112   0.193   0.627 -5.3314 -0.1735 -1.9370
    5PEO   C288 3456   2.086   0.216   0.731  0.7157 -0.0084 -0.1355
    5PEO   C289 3457   1.962   0.305   0.716  0.0612 -0.3053 -0.4892
    5PEO   H28A 3458   1.990   0.399   0.666 -1.9017 -0.1772 -1.4379
    5PEO   H28B 3459   1.895   0.252   0.646 -0.0041 -2.6013  1.1946
    5PEO   O28C 3460   1.907   0.335   0.848 -0.2874 -0.0634  0.7211
    5PEO   H28D 3461   1.797   0.160   0.818  0.8569 -0.8822  1.5015
    5PEO   H28E 3462   1.699   0.316   0.828  0.8934  0.4388 -1.2944
    5PEO   C28F 3463   1.786   0.259   0.864 -0.1414 -0.3102  0.1128
    5PEO   C290 3464   1.759   0.243   1.007 -0.1120 -0.0243  0.7508
    5PEO   H291 3465   1.746   0.340   1.057  4.0257  0.0937  1.9488
    5PEO   H292 3466   1.663   0.190   1.010  0.0300 -0.2663  1.0394
    5PEO   O293 3467   1.849   0.148   1.060 -0.6712  0.0882  0.2841
    5PEO   H294 3468   1.788   0.052   1.233  0.1599 -0.9281 -2.9554
    5PEO   H295 3469   1.843   0.226   1.264  2.0845  0.8613 -0.9867
    5PEO   C296 3470   1.857   0.133   1.206 -0.0466  0.1484 -0.4688
    5PEO   C297 3471   1.992   0.075   1.247  0.4694  0.5910 -0.2873
    5PEO   H298 3472   1.978   0.006   1.331 -0.4016 -1.4511 -2.0110
    5PEO   H299 3473   2.033   0.029   1.156 -0.7683 -0.2614 -0.4410
    5PEO   O29A 3474   2.075   0.178   1.297 -0.0268 -0.2124  0.3903
    5PEO   H29B 3475   2.291   0.127   1.271  2.2332  2.1582  0.9986
    5PEO   H29C 3476   2.194   0.064   1.410 -1.3578 -0.2055 -0.8397
    5PEO   C29D 3477   2.213   0.150   1.345  0.5613  0.0749  0.0074
    5PEO   C29E 3478   2.264   0.270   1.429  0.2737 -0.3029  0.0535
    5PEO   H29F 3479   2.191   0.277   1.511  1.6862 -1.6160  1.4900
    5PEO   H2A0 3480   2.363   0.242   1.469  0.2142  0.9767  1.1506
    5PEO   O2A1 3481   2.282   0.393   1.343 -0.6322 -0.7452  0.1703
    5PEO   H2A2 3482   2.433   0.481   1.455  0.1568  0.2670  0.7160
    5PEO   H2A3 3483   2.269   0.512   1.507  0.6263  1.2394 -0.7896
    5PEO   C2A4 3484   2.331   0.499   1.417  0.6883  0.4965 -0.6461
    5PEO   C2A5 3485   2.340   0.624   1.326  1.2945 -0.0693 -0.6776
    5PEO   H2A6 3486   2.251   0.619   1.261  1.2798  1.4599 -0.8061
    5PEO   H2A7 3487   2.327   0.713   1.389 -0.3629 -1.7828  1.5582
    5PEO   O2A8 3488   2.458   0.623   1.251  0.4748 -0.1551  0.8745
    5PEO   H2A9 3489   2.557   0.813   1.275  1.8613  1.4248 -2.5438
    5PEO   H2AA 3490   2.430   0.821   1.165  2.5123  2.8739 -2.5866
    5PEO   C2AB 3491   2.510   0.752   1.196 -0.4927  0.1363 -0.2739
    5PEO   C2AC 3492   2.602   0.733   1.072  0.1503  0.5006 -0.4877
    5PEO   H2AD 3493   2.632   0.829   1.028 -1.4795  0.7133 -1.2112
    5PEO   H2AE 3494   2.691   0.684   1.113 -1.0787 -2.5882 -1.1816
    5PEO   O2AF 3495   2.518   0.660   0.974 -0.1322 -0.5550 -0.4325
    5PEO   H2B0 3496   2.627   0.500   0.907  1.5894  1.8929  0.3297
    5PEO   H2B1 3497   2.669   0.653   0.826  0.5793 -0.5582 -1.9507
    5PEO   C2B2 3498   2.585   0.592   0.864  0.1264  0.8368 -0.6094
    5PEO   C2B3 3499   2.493   0.565   0.738  0.2025 -0.2093 -0.6872
    5PEO   H2B4 3500   2.531   0.486   0.673  2.4497  0.6178 -0.4584
    5PEO   H2B5 3501   2.401   0.518   0.778  0.6178 -0.9815 -0.6262
    5PEO   O2B6 3502   2.469   0.682   0.669  0.3508 -0.3146  0.1784
    5PEO   H2B7 3503   2.253   0.726   0.647 -0.4597 -1.3413  1.4104
    5PEO   H2B8 3504   2.315   0.588   0.548  0.5382  1.1743 -0.4802
    5PEO   C2B9 3505   2.339   0.686   0.591  0.1736  0.7236  0.8151
    5PEO   C2BA 3506   2.362   0.775   0.460  0.0603  0.7032 -0.0337
    5PEO   H2BB 3507   2.270   0.776   0.399  0.6186  0.3214 -0.9105
    5PEO   H2BC 3508   2.388   0.877   0.493 -1.3613  1.4694 -1.1391
    5PEO   O2BD 3509   2.470   0.727   0.372  0.3471 -0.1116 -0.3214
    5PEO   H2BE 3510   2.483   0.817   0.338  0.1626  0.2134  0.4338
    6PEO   H001 3511   6.716   0.373   3.423 -0.7124  0.6515 -0.5480
    6PEO   H002 3512   6.618   0.396   3.564  1.1252 -0.4349  0.9744
    6PEO   H003 3513   6.641   0.225   3.489 -0.6857 -0.2978 -1.4001
    6PEO   C004 3514   6.627   0.333   3.474  0.0973  0.1047  0.4742
    6PEO   C005 3515   6.499   0.329   3.391  0.3571  0.4822 -0.4929
    6PEO   H006 3516   6.501   0.408   3.314  2.5245 -2.2229 -3.4863
    6PEO   H007 3517   6.486   0.237   3.333 -0.9055  0.3009  0.0575
    6PEO   O008 3518   6.384   0.327   3.476 -0.6385  0.3080 -0.7308
    6PEO   H009 3519   6.428   0.145   3.584  1.3172  0.4256 -0.4786
    6PEO   H00A 3520   6.320   0.140   3.446  5.0631 -1.4486 -1.3160
    6PEO   C00B 3521   6.346   0.199   3.535 -0.0078 -0.9476  0.1446
    6PEO   C00C 3522   6.225   0.225   3.632 -0.6375 -0.5335  0.0298
    6PEO   H00D 3523   6.158   0.288   3.572 -0.0026  0.3920  0.2603
    6PEO   H00E 3524   6.189   0.131   3.675 -0.6738 -0.2365  0.6563
    6PEO   O00F 3525   6.269   0.310   3.738 -0.2070 -0.4135 -0.0760
    6PEO   H010 3526   6.316   0.133   3.848 -2.8042 -1.2015  2.1769
    6PEO   H011 3527   6.168   0.197   3.896 -0.3263 -1.0583 -2.1824
    6PEO   C012 3528   6.268   0.231   3.866 -0.1361  0.6330  0.0969
    6PEO   C013 3529   6.344   0.311   3.978 -0.0112  0.6323  0.0263
    6PEO   H014 3530   6.320   0.417   3.960  0.7190  0.4474 -2.4912
    6PEO   H015 3531   6.302   0.284   4.075  0.9218 -1.7486 -0.1563
    6PEO   O016 3532   6.490   0.308   3.972  0.1376  0.2537  0.3013
    6PEO   H017 3533   6.537   0.083   4.007  1.0680  0.1869  0.7274
    6PEO   H018 3534   6.510   0.184   4.144 -1.6918  0.6236 -0.2459
    6PEO   C019 3535   6.546   0.188   4.041 -0.7998  0.6068  0.0573
    6PEO   C01A 3536   6.701   0.215   4.051  0.1293  0.3808 -0.3240
    6PEO   H01B 3537   6.709   0.316   4.095 -0.6881  0.6042 -0.6714
    6PEO   H01C 3538   6.747   0.139   4.115  0.8943  0.7917 -0.3709
    6PEO   O01D 3539   6.765   0.220   3.924  0.3484 -0.0783  0.2858
    6PEO   H01E 3540   6.702   0.418   3.888 -3.3368 -0.2254 -1.5904
    6PEO   H01F 3541   6.667   0.295   3.761 -2.6119 -0.2529  1.7809
    6PEO   C020 3542   6.741   0.329   3.835 -0.7972 -0.1782  0.0364
    6PEO   C021 3543   6.888   0.372   3.781  0.4049  0.6834  0.5181
    6PEO   H022 3544   6.906   0.463   3.840 -1.0296  0.5418  1.2132
    6PEO   H023 3545   6.965   0.295   3.800  0.6922  0.1948 -2.2335
    6PEO   O024 3546   6.887   0.389   3.640  0.0092 -0.8205  0.2242
    6PEO   H025 3547   7.095   0.366   3.613 -0.1574  0.3470  0.1741
    6PEO   H026 3548   7.046   0.525   3.657  2.2639 -1.1626  0.3354
    6PEO   C027 3549   7.016   0.440   3.593 -0.2379  0.1320 -0.3314
    6PEO   C028 3550   6.999   0.472   3.448 -0.1651 -0.5116  0.3149
    6PEO   H029 3551   7.096   0.496   3.400  1.0822  2.8323  3.9826
    6PEO   H02A 3552   6.953   0.380   3.408 -0.6749 -0.4569  0.7603
    6PEO   O02B 3553   6.911   0.591   3.436  0.4433 -0.3227  0.4761
    6PEO   H02C 3554   6.799   0.522   3.273 -1.9408  1.3134 -1.0393
    6PEO   H02D 3555   6.949   0.601   3.231  0.4797  0.8962  0.1636
    6PEO   C02E 3556   6.865   0.605   3.301  0.0837 -0.4763 -0.1940
    6PEO   C02F 3557   6.782   0.729   3.274  0.5516 -0.6395 -0.8831
    6PEO   H030 3558   6.738   0.718   3.174  1.1466  1.0362 -1.3672
    6PEO   H031 3559   6.712   0.743   3.357  1.4074 -1.9308  0.1062
    6PEO   O032 3560   6.875   0.849   3.260  0.7021  0.5651 -0.4263
    6PEO   H033 3561   6.750   0.985   3.151  2.0659  1.1757 -1.2030
    6PEO   H034 3562   6.899   1.048   3.208 -3.3218  2.6451 -0.4307
    6PEO   C035 3563   6.820   0.976   3.235 -0.0078 -1.0206  0.4348
    6PEO   C036 3564   6.767   1.035   3.373  0.6532 -0.4290 -0.3484
    6PEO   H037 3565   6.825   0.978   3.447  2.1357  0.8401 -0.4829
    6PEO   H038 3566   6.782   1.143   3.381 -0.8162 -0.3147  1.6724
    6PEO   O039 3567   6.630   0.999   3.385 -0.7108 -0.1180  0.1390
    6PEO   H03A 3568   6.650   0.942   3.594  1.6224  0.0772 -0.6067
    6PEO   H03B 3569   6.491   0.946   3.538  0.0090  0.0092  0.1993
    6PEO   C03C 3570   6.586   0.999   3.524  0.0957 -0.0293  0.6379
    6PEO   C03D 3571   6.571   1.151   3.560 -0.5188 -0.3954  0.4110
    6PEO   H03E 3572   6.541   1.149   3.666 -2.4012 -2.2148 -0.0811
    6PEO   H03F 3573   6.659   1.213   3.538 -1.4070  0.6867 -0.2133
    6PEO   O040 3574   6.460   1.203   3.481 -0.6052 -0.4170 -0.2418
    6PEO   H041 3575   6.487   1.408   3.508 -0.9047  0.1085 -0.3892
    6PEO   H042 3576   6.403   1.331   3.640 -1.5233 -1.6281 -0.4804
    6PEO   C043 3577   6.413   1.330   3.530 -0.1094 -0.6694 -0.3891
    6PEO   C044 3578   6.276   1.357   3.462 -0.0577  0.1261 -0.1545
    6PEO   H045 3579   6.230   1.452   3.494  0.6625  1.2251 -2.1620
    6PEO   H046 3580   6.289   1.368   3.354  1.3344  0.0656 -0.0168
    6PEO   O047 3581   6.191   1.244   3.484 -0.2176  0.1879 -0.2090
    6PEO   H048 3582   6.049   1.353   3.379 -2.9074  0.2673  0.4171
    6PEO   H049 3583   6.026   1.324   3.549  0.5802  0.6131 -0.6529
    6PEO   C04A 3584   6.057   1.275   3.456 -0.1671 -0.3592 -0.4001
    6PEO   C04B 3585   5.977   1.149   3.430  0.6896  0.8304  0.4721
    6PEO   H04C 3586   5.895   1.188   3.369  2.7409  2.5736 -1.3380
    6PEO   H04D 3587   6.035   1.065   3.389  2.4410  1.0878  2.2558
    6PEO   O04E 3588   5.923   1.097   3.555  0.8874  0.0955  0.0535
    6PEO   H04F 3589   5.955   1.002   3.735  1.7611 -2.4648  0.7841
    6PEO   H050 3590   6.067   1.135   3.704 -0.3804 -0.1815 -1.2864
    6PEO   C051 3591   6.012   1.053   3.656 -0.6394 -0.7814 -0.0046
    6PEO   C052 3592   6.113   0.941   3.598 -0.8310 -0.5007  0.1603
    6PEO   H053 3593   6.162   0.976   3.506 -3.6616 -1.2683 -1.7940
    6PEO   H054 3594   6.188   0.927   3.677  0.8376  0.0475 -1.2601
    6PEO   O055 3595   6.040   0.820   3.567  0.1764 -0.5292  0.3143
    6PEO   H056 3596   6.159   0.697   3.439  1.2685  0.2539  0.5451
    6PEO   H057 3597   6.021   0.632   3.512  1.2260 -2.2012  1.0628
    6PEO   C058 3598   6.104   0.700   3.534  0.0665 -0.3389 -0.1125
    6PEO   C059 3599   6.180   0.634   3.649  1.3264  0.0583  0.0617
    6PEO   H05A 3600   6.128   0.657   3.743 -2.4701 -0.8065 -1.6581
    6PEO   H05B 3601   6.183   0.527   3.627  1.4372  0.5067 -2.3288
    6PEO   O05C 3602   6.302   0.699   3.640  0.5316  0.3431 -0.3830
    6PEO   H05D 3603   6.505   0.692   3.707  1.2000  0.0454  2.3065
    6PEO   H05E 3604   6.411   0.542   3.739 -0.3917 -0.5199 -2.2013
    6PEO   C05F 3605   6.405   0.652   3.727  0.6063 -0.2966 -0.8547
    6PEO   C060 3606   6.380   0.721   3.871  0.0808  0.2254  0.0995
    6PEO   H061 3607   6.275   0.712   3.904  0.6050 -1.7044  1.4376
    6PEO   H062 3608   6.431   0.664   3.950 -0.6422 -0.7051 -0.0937
    6PEO   O063 3609   6.437   0.850   3.859  0.4630 -0.1219  0.1965
    6PEO   H064 3610   6.485   1.029   3.952  1.0104 -0.8337 -2.9955
    6PEO   H065 3611   6.434   0.893   4.060  0.5596 -0.0727 -1.0662
    6PEO   C066 3612   6.417   0.943   3.964 -0.5015  0.5762 -0.5607
    6PEO   C067 3613   6.275   1.011   3.964 -0.0260  0.0719  0.1785
    6PEO   H068 3614   6.283   1.115   4.001  0.5274  1.3414 -3.2112
    6PEO   H069 3615   6.235   1.011   3.862 -0.9680 -1.1115  0.5268
    6PEO   O06A 3616   6.190   0.924   4.035  0.2675  0.1998  0.1618
    6PEO   H06B 3617   6.013   1.014   3.980  1.2040  1.2077 -0.4629
    6PEO   H06C 3618   6.072   1.072   4.133  1.8748 -1.6637  2.6800
    6PEO   C06D 3619   6.064   0.981   4.072 -0.0416  0.2068 -0.1034
    6PEO   C06E 3620   5.980   0.881   4.151 -0.7407  0.5340 -0.2644
    6PEO   H06F 3621   6.044   0.858   4.237 -0.4568 -0.4954 -0.7290
    6PEO   H070 3622   5.883   0.912   4.194 -0.2518  1.1525  0.4056
    6PEO   O071 3623   5.958   0.762   4.064 -0.5433 -0.6388  0.3972
    6PEO   H072 3624   6.095   0.639   4.156  0.6701  1.0404 -2.7990
    6PEO   H073 3625   5.972   0.554   4.061  2.1754 -3.2599  2.3265
    6PEO   C074 3626   5.988   0.639   4.129  0.1996  0.1247 -1.0548
    6PEO   C075 3627   5.898   0.621   4.253 -1.0973 -0.7471 -0.1859
    6PEO   H076 3628   5.949   0.543   4.311  0.0576  2.7218  3.9068
    6PEO   H077 3629   5.902   0.714   4.311  4.3023 -0.4496 -0.5587
    6PEO   O078 3630   5.769   0.595   4.200  0.9881  0.0882 -0.0753
    6PEO   H079 3631   5.664   0.626   4.385  2.1104  0.4421 -0.1765
    6PEO   H07A 3632   5.661   0.462   4.315  2.4595  0.3306  2.4354
    6PEO   C07B 3633   5.658   0.569   4.291 -0.5943 -0.1126  0.2351
    6PEO   C07C 3634   5.522   0.599   4.215 -0.6214  0.7494 -0.2886
    6PEO   H07D 3635   5.536   0.567   4.111 -1.2338  1.3030 -0.5494
    6PEO   H07E 3636   5.439   0.546   4.263  0.8441 -0.2953  1.2351
    6PEO   O07F 3637   5.503   0.740   4.215  0.1956  0.0972  0.0124
    6PEO   H080 3638   5.522   0.760   4.010 -0.0943  0.7533  1.0274
    6PEO   H081 3639   5.672   0.794   4.105  0.9342  1.2014 -2.9148
    6PEO   C082 3640   5.562   0.804   4.103  0.6480  0.4103  0.8750
    6PEO   C083 3641   5.511   0.949   4.094  0.5106  0.1665  0.5613
    6PEO   H084 3642   5.411   0.950   4.049  0.0851 -0.9381  1.4479
    6PEO   H085 3643   5.494   0.985   4.197 -1.4803  0.5578  0.1391
    6PEO   O086 3644   5.607   1.030   4.021  0.1029  0.6074  0.5468
    6PEO   H087 3645   5.496   1.002   3.841 -0.3493 -3.3314 -0.1881
    6PEO   H088 3646   5.635   0.896   3.860  0.7131  0.2964  0.1426
    6PEO   C089 3647   5.600   0.998   3.878 -0.3474 -0.0972  0.3666
    6PEO   C08A 3648   5.688   1.102   3.805 -0.1467 -1.0865  0.7474
    6PEO   H08B 3649   5.793   1.106   3.838  0.0706  1.7559 -0.0521
    6PEO   H08C 3650   5.686   1.104   3.695 -2.8346  1.5823  0.7065
    6PEO   O08D 3651   5.619   1.222   3.836 -0.2472 -0.4400  0.2010
    6PEO   H08E 3652   5.631   1.318   3.654 -1.3540  0.3653  0.1274
    6PEO   H08F 3653   5.768   1.353   3.759  0.2780 -1.2775  2.4920
    6PEO   C090 3654   5.659   1.336   3.758 -0.0892  0.5757 -0.2308
    6PEO   C091 3655   5.591   1.467   3.816  0.3820 -0.0356  0.3547
    6PEO   H092 3656   5.602   1.488   3.923  0.7481  0.8225  0.1547
    6PEO   H093 3657   5.635   1.550   3.759  0.5800  0.7395  1.6089
    6PEO   O094 3658   5.455   1.484   3.760 -0.3653 -0.2878  0.1792
    6PEO   H095 3659   5.332   1.434   3.930 -1.4076  1.7419  0.0139
    6PEO   H096 3660   5.362   1.302   3.816  2.6007  0.5280 -0.0554
    6PEO   C097 3661   5.346   1.411   3.823  0.3873  0.2200  0.5223
    6PEO   C098 3662   5.221   1.462   3.752 -0.1782 -0.1369 -0.5191
    6PEO   H099 3663   5.180   1.555   3.795  2.2125  1.6907 -1.8952
    6PEO   H09A 3664   5.244   1.469   3.645 -0.2364 -1.5558 -0.6369
    6PEO   O09B 3665   5.131   1.348   3.759 -0.4619 -0.1071  0.1809
    6PEO   H09C 3666   4.956   1.462   3.739 -3.3047 -1.3808 -0.0764
    6PEO   H09D 3667   4.925   1.292   3.764  1.1621 -0.4124 -1.0049
    6PEO   C09E 3668   4.993   1.362   3.712  0.4674  0.1214 -1.2073
    6PEO   C09F 3669   4.990   1.314   3.565 -0.3506 -0.3972  0.0674
    6PEO   H0A0 3670   5.080   1.258   3.537 -0.0171 -0.6614  1.5962
    6PEO   H0A1 3671   4.893   1.264   3.548 -1.7415  2.2415 -0.3834
    6PEO   O0A2 3672   4.999   1.437   3.492  0.3848 -0.2679  0.1013
    6PEO   H0A3 3673   4.884   1.371   3.333  0.8373 -0.7943 -3.0363
    6PEO   H0A4 3674   5.056   1.381   3.304  0.1458 -1.4588  1.2182
    6PEO   C0A5 3675   4.974   1.430   3.358 -0.0906 -0.5046  0.0124
    6PEO   C0A6 3676   4.962   1.577   3.320  0.3741 -0.8329  0.4685
    6PEO   H0A7 3677   4.894   1.592   3.236  0.6153  2.9718  0.7593
    6PEO   H0A8 3678   4.917   1.637   3.401 -2.6632 -3.3864  0.8705
    6PEO   O0A9 3679   5.087   1.618   3.294 -0.2114 -0.2489 -0.0594
    6PEO   H0AA 3680   5.080   1.825   3.335 -1.2849 -1.7704  1.5199
    6PEO   H0AB 3681   5.062   1.770   3.154  0.1096 -2.1210 -0.2977
    6PEO   C0AC 3682   5.111   1.760   3.252 -0.0612  0.4913  0.1057
    6PEO   C0AD 3683   5.261   1.780   3.225 -0.5817 -0.9906  0.5098
    6PEO   H0AE 3684   5.315   1.694   3.183  2.0278  1.7472 -2.2441
    6PEO   H0AF 3685   5.275   1.863   3.155 -1.1961  0.9097  2.5218
    6PEO   O0B0 3686   5.327   1.808   3.355 -0.6946  0.5415 -0.2712
    6PEO   H0B1 3687   5.480   1.663   3.337 -1.5789 -0.9404  1.9894
    6PEO   H0B2 3688   5.513   1.803   3.448  0.7338  2.5112 -1.1545
    6PEO   C0B3 3689   5.469   1.771   3.352  0.1712 -0.4078 -0.0252
    6PEO   C0B4 3690   5.541   1.840   3.229  0.0088 -1.1709 -1.0482
    6PEO   H0B5 3691   5.478   1.924   3.198 -2.1450 -3.6001 -3.7707
    6PEO   H0B6 3692   5.647   1.863   3.250 -0.5714  1.8777 -1.0455
    6PEO   O0B7 3693   5.524   1.743   3.124  0.1849 -0.6166 -0.2323
    6PEO   H0B8 3694   5.678   1.773   2.983  0.9681  1.6178  2.6466
    6PEO   H0B9 3695   5.512   1.871   2.962 -0.6813 -0.8441  0.6364
    6PEO   C0BA 3696   5.568   1.781   2.989  0.4364 -0.6823 -1.0220
    6PEO   C0BB 3697   5.503   1.682   2.898  0.3321 -0.3055 -0.4265
    6PEO   H0BC 3698   5.519   1.698   2.791 -2.9758  0.6506 -0.8996
    6PEO   H0BD 3699   5.533   1.577   2.910 -0.9847 -0.4872  2.0883
    6PEO   O0BE 3700   5.362   1.688   2.918 -0.4634  0.0613  0.0172
    6PEO   H0BF 3701   5.333   1.539   2.776  1.8062  1.7884 -2.4009
    6PEO   H0C0 3702   5.302   1.704   2.718  1.8038  0.1832  0.2780
    6PEO   C0C1 3703   5.296   1.638   2.806  0.2417  0.4645  0.3984
    6PEO   C0C2 3704   5.145   1.641   2.843 -0.5100 -0.3808 -0.1710
    6PEO   H0C3 3705   5.086   1.606   2.757 -0.8511  1.0229 -0.5505
    6PEO   H0C4 3706   5.122   1.576   2.928  0.8163 -1.2079 -0.4129
    6PEO   O0C5 3707   5.109   1.781   2.864  0.7989  0.4254 -0.0182
    6PEO   H0C6 3708   4.933   1.756   2.985 -2.0413 -0.2270 -1.1933
    6PEO   H0C7 3709   4.907   1.744   2.810 -0.2052 -3.3297  2.5311
    6PEO   C0C8 3710   4.967   1.794   2.888  0.2002  0.7436 -0.0970
    6PEO   C0C9 3711   4.928   1.935   2.876 -0.6147  0.1504 -0.3794
    6PEO   H0CA 3712   4.975   1.967   2.782 -0.4139 -0.6796 -0.5708
    6PEO   H0CB 3713   4.819   1.941   2.865 -0.6093  0.5219 -0.2593
    6PEO   O0CC 3714   4.988   2.015   2.988 -0.6477 -0.4672  0.4934
    6PEO   H0CD 3715   4.855   2.182   3.011  0.6258  0.1328 -0.8551
    6PEO   H0CE 3716   4.955   2.171   2.863  0.3210 -2.0672 -0.4016
    6PEO   C0CF 3717   4.953   2.152   2.972  0.7030 -0.6272 -0.1204
    6PEO   C0D0 3718   5.066   2.237   3.039  0.1331  0.6653  0.2712
    6PEO   H0D1 3719   5.166   2.200   3.014 -0.6889 -2.6321  1.2727
    6PEO   H0D2 3720   5.050   2.337   2.998  0.2099  0.7572  0.4644
    6PEO   O0D3 3721   5.042   2.249   3.181  0.0047  0.1130 -0.1013
    6PEO   H0D4 3722   5.218   2.147   3.247  0.8392  1.0357  0.7023
    6PEO   H0D5 3723   5.056   2.052   3.235 -0.1623  0.4540  0.3783
    6PEO   C0D6 3724   5.109   2.146   3.261  0.7166  0.1340 -0.1955
    6PEO   C0D7 3725   5.074   2.168   3.407 -0.5673 -0.2994  0.2285
    6PEO   H0D8 3726   4.965   2.177   3.408 -0.9145 -3.2471 -0.9474
    6PEO   H0D9 3727   5.097   2.082   3.472 -0.7750 -0.0332  0.6610
    6PEO   O0DA 3728   5.136   2.284   3.481 -0.0716 -0.0098  0.5567
    6PEO   H0DB 3729   5.085   2.204   3.673  0.7284  0.8133  1.0697
    6PEO   H0DC 3730   4.995   2.349   3.632  0.9796  0.5442  1.2709
    6PEO   C0DD 3731   5.093   2.300   3.620  0.4932 -0.0607 -0.6132
    6PEO   C0DE 3732   5.194   2.395   3.686 -0.2990 -0.0356 -0.1681
    6PEO   H0DF 3733   5.241   2.461   3.612 -0.2695  0.3261  0.1659
    6PEO   H0E0 3734   5.141   2.463   3.756 -0.1641  0.9400 -0.9854
    6PEO   O0E1 3735   5.287   2.309   3.753  0.2971  0.6608  0.2906
    6PEO   H0E2 3736   5.458   2.443   3.734  0.9413 -0.9099  0.6585
    6PEO   H0E3 3737   5.479   2.288   3.788 -0.5921 -0.6775 -0.0487
    6PEO   C0E4 3738   5.407   2.370   3.798 -0.1309 -0.3316  0.4798
    6PEO   C0E5 3739   5.400   2.400   3.949  0.8317 -0.3804  0.4409
    6PEO   H0E6 3740   5.350   2.310   3.989  0.8433 -0.3043  0.6245
    6PEO   H0E7 3741   5.503   2.401   3.987  1.0308 -0.6630 -0.0839
    6PEO   O0E8 3742   5.330   2.529   3.966  0.3293 -0.3837  0.4969
    6PEO   H0E9 3743   5.510   2.627   3.927 -0.7719  0.7632 -0.3530
    6PEO   H0EA 3744   5.410   2.686   4.064 -3.3795  0.0741 -0.1211
    6PEO   C0EB 3745   5.407   2.645   3.962 -0.8604  0.2832 -0.3546
    6PEO   C0EC 3746   5.354   2.739   3.860  0.0621  0.0341  0.2763
    6PEO   H0ED 3747   5.437   2.811   3.847  0.2271 -0.2448 -0.2445
    6PEO   H0EE 3748   5.336   2.692   3.762  0.1336  0.5855 -0.0048
    6PEO   O0EF 3749   5.232   2.799   3.905 -0.6137 -0.5387 -0.5882
    6PEO   H0F0 3750   5.116   2.625   3.944 -1.0234  1.0092  1.6430
    6PEO   H0F1 3751   5.098   2.708   3.785 -2.0441 -1.2085  0.7969
    6PEO   C0F2 3752   5.117   2.723   3.893  1.3359  0.2865  0.1464
    6PEO   C0F3 3753   4.999   2.805   3.943  0.4180 -0.7134 -0.5870
    6PEO   H0F4 3754   4.970   2.890   3.880 -0.6829 -0.6828 -0.0580
    6PEO   H0F5 3755   4.905   2.748   3.953 -1.9471  2.7920 -0.8910
    6PEO   O0F6 3756   5.034   2.846   4.076  0.7849 -0.2304 -0.3195
    6PEO   H0F7 3757   4.857   2.946   4.102 -0.5564 -0.8085 -0.3935
    6PEO   H0F8 3758   5.002   3.048   4.045 -0.1270 -1.2751 -0.8952
    6PEO   C0F9 3759   4.965   2.967   4.110 -0.5883 -0.6534 -0.3700
    6PEO   C0FA 3760   4.980   2.987   4.263  0.8468 -0.4008 -0.1328
    6PEO   H0FB 3761   5.078   2.952   4.298  0.2947 -1.0353  0.8173
    6PEO   H0FC 3762   4.957   3.091   4.291 -1.2225 -0.9004  0.2196
    6PEO   O0FD 3763   4.883   2.900   4.325  0.6434 -0.4544  0.3341
    6PEO   H0FE 3764   4.896   2.999   4.495 -1.8274 -0.5181  0.7950
    6PEO   H0FF 3765   5.026   2.867   4.475 -0.6728 -0.9222 -0.6877
    6PEO   C100 3766   4.920   2.896   4.465 -0.4906  0.0118 -0.0564
    6PEO   C101 3767   4.833   2.795   4.532  0.1516  0.0313  0.8399
    6PEO   H102 3768   4.817   2.813   4.639  0.1726 -1.0916  1.0540
    6PEO   H103 3769   4.734   2.812   4.488 -0.4775 -0.0962  2.1434
    6PEO   O104 3770   4.877   2.656   4.509  0.2843 -0.4265  0.0114
    6PEO   H105 3771   4.825   2.455   4.550 -1.7073 -0.0168  1.7641
    6PEO   H106 3772   4.696   2.553   4.484  0.9967  2.8739 -1.8426
    6PEO   C107 3773   4.780   2.555   4.555 -0.2235  0.8022 -0.2076
    6PEO   C108 3774   4.729   2.572   4.702 -1.3126  0.7365 -0.2040
    6PEO   H109 3775   4.688   2.482   4.751  1.4679 -0.5747 -0.1068
    6PEO   H10A 3776   4.821   2.592   4.759 -1.3871  1.3938 -0.3012
    6PEO   O10B 3777   4.638   2.671   4.706  0.6567 -0.3615 -0.5249
    6PEO   H10C 3778   4.705   2.746   4.874  0.3516  0.6004  0.5364
    6PEO   H10D 3779   4.554   2.642   4.894 -2.0011  2.1344  0.0779
    6PEO   C10E 3780   4.604   2.722   4.837  0.6334  0.4415 -0.1417
    6PEO   C10F 3781   4.518   2.853   4.837 -1.1873 -0.5518 -0.3102
    6PEO   H110 3782   4.537   2.892   4.938  0.2954  0.2285 -0.8551
    6PEO   H111 3783   4.559   2.931   4.771  2.0314  0.6670  2.8081
    6PEO   O112 3784   4.387   2.822   4.806  0.2615  0.2846 -0.4178
    6PEO   H113 3785   4.334   3.020   4.805  0.1040  0.2815  0.7030
    6PEO   H114 3786   4.299   2.929   4.960  0.8529 -2.0477 -0.7551
    6PEO   C115 3787   4.301   2.925   4.850 -0.5031 -0.2808 -0.8912
    6PEO   C116 3788   4.156   2.887   4.804  0.1008 -0.1904  0.0698
    6PEO   H117 3789   4.088   2.972   4.819 -0.8225 -1.1262  1.5132
    6PEO   H118 3790   4.158   2.859   4.698  0.3603 -1.4090  0.3822
    6PEO   O119 3791   4.110   2.777   4.890  0.3515 -0.7426  0.5267
    6PEO   H11A 3792   3.905   2.779   4.805 -0.1008  1.4011  0.0064
    6PEO   H11B 3793   3.924   2.804   4.980  4.1280 -0.8077  3.0166
    6PEO   C11C 3794   3.963   2.749   4.893 -0.1596  0.6607 -0.1989
    6PEO   C11D 3795   3.941   2.600   4.926  0.2900  0.5799 -0.0670
    6PEO   H11E 3796   3.841   2.597   4.970  0.2669 -1.0535 -0.1781
    6PEO   H11F 3797   3.933   2.532   4.840 -4.4192 -1.0161  1.3292
    6PEO   O120 3798   4.034   2.554   5.030 -0.3056 -0.4742  0.1832
    6PEO   H121 3799   4.201   2.500   4.900  0.8657 -0.1140  1.5795
    6PEO   H122 3800   4.093   2.363   4.950 -0.5157 -0.8515  1.5615
    6PEO   C123 3801   4.134   2.461   4.978 -0.3234 -0.5713  0.3676
    6PEO   C124 3802   4.241   2.428   5.087  0.4592 -0.3094 -0.6411
    6PEO   H125 3803   4.195   2.415   5.186  1.3027 -1.3099 -0.3566
    6PEO   H126 3804   4.278   2.329   5.058 -0.5073 -0.6321 -0.8048
    6PEO   O127 3805   4.342   2.538   5.096 -0.6753  0.0765 -0.5196
    6PEO   H128 3806   4.259   2.620   5.269  1.2046  4.1294  1.6527
    6PEO   H129 3807   4.212   2.706   5.122  1.9103 -0.6194 -2.8597
    6PEO   C12A 3808   4.293   2.649   5.168  0.5716 -0.4626 -0.1251
    6PEO   C12B 3809   4.416   2.743   5.194 -0.1069 -0.1502 -0.5697
    6PEO   H12C 3810   4.487   2.763   5.113  0.2535  2.3530  0.2748
    6PEO   H12D 3811   4.378   2.847   5.198  1.6029  0.4846  0.2874
    6PEO   O12E 3812   4.473   2.707   5.320  0.0834  0.1376  0.2527
    6PEO   H12F 3813   4.624   2.614   5.214 -1.0497 -3.1357 -0.5953
    6PEO   H130 3814   4.525   2.501   5.305  0.5111 -0.7995  1.3496
    6PEO   C131 3815   4.571   2.601   5.309 -0.8100 -0.1147  0.0585
    6PEO   C132 3816   4.665   2.601   5.431 -0.0024 -0.8231 -0.1194
    6PEO   H133 3817   4.600   2.638   5.511  0.4930  0.5504 -0.3263
    6PEO   H134 3818   4.694   2.497   5.454  1.9482 -0.9434 -2.6728
    6PEO   O135 3819   4.771   2.692   5.409  0.5137  0.3376 -0.6094
    6PEO   H136 3820   4.823   2.613   5.595  2.4212 -0.8734  1.2848
    6PEO   H137 3821   4.862   2.783   5.570 -1.5904  0.9086 -1.2777
    6PEO   C138 3822   4.863   2.685   5.522  0.2802 -0.1591  0.7569
    6PEO   C139 3823   4.994   2.634   5.459  0.1932 -0.8500 -0.3750
    6PEO   H13A 3824   5.018   2.686   5.365 -1.2735  1.4188  0.4180
    6PEO   H13B 3825   5.084   2.657   5.518  0.0956 -2.1202  0.3039
    6PEO   O13C 3826   4.982   2.492   5.449  0.3011 -0.4621 -0.7984
    6PEO   H13D 3827   5.177   2.450   5.450  0.2650  2.5800 -1.3457
    6PEO   H13E 3828   5.108   2.445   5.281  0.0944  1.1551  0.4565
    6PEO   C13F 3829   5.090   2.422   5.387 -0.2527  0.3916  0.2399
    6PEO   C140 3830   5.056   2.267   5.393 -0.5685 -0.1864 -0.2057
    6PEO   H141 3831   5.152   2.227   5.358 -0.1956 -0.1541  0.7528
    6PEO   H142 3832   5.039   2.234   5.497 -4.2211  0.0011 -0.6061
    6PEO   O143 3833   4.937   2.232   5.323 -0.1103 -0.1086 -0.2730
    6PEO   H144 3834   4.872   2.048   5.363 -0.3532  3.0867  2.8651
    6PEO   H145 3835   5.006   2.061   5.239 -0.1530  0.7308  0.2011
    6PEO   C146 3836   4.910   2.101   5.275 -0.2012 -0.0181  0.9387
    6PEO   C147 3837   4.806   2.118   5.160 -0.3595  0.5405 -0.0801
    6PEO   H148 3838   4.810   2.221   5.123  0.0731 -0.0384 -1.7523
    6PEO   H149 3839   4.819   2.038   5.085 -1.0476 -1.0760  1.4623
    6PEO   O14A 3840   4.677   2.106   5.209 -0.3927  0.0572  0.1091
    6PEO   H14B 3841   4.637   2.306   5.215  0.8122 -1.3841 -1.3420
    6PEO   H14C 3842   4.689   2.231   5.373  2.3081  2.1010 -1.2557
    6PEO   C14D 3843   4.632   2.217   5.280  0.0520 -0.1696  0.3285
    6PEO   C14E 3844   4.488   2.187   5.324 -0.4721 -0.2537 -1.3323
    6PEO   H14F 3845   4.495   2.103   5.396  2.0423 -1.2105 -2.5879
    6PEO   H150 3846   4.442   2.273   5.374 -0.5155 -0.8686 -0.2608
    6PEO   O151 3847   4.399   2.144   5.225  0.0745  0.1411  0.2177
    6PEO   H152 3848   4.228   2.221   5.310 -0.0141 -0.8338 -0.5942
    6PEO   H153 3849   4.290   2.063   5.363  1.3684  1.1694  0.5111
    6PEO   C154 3850   4.272   2.126   5.275 -0.0489 -0.8079 -0.7080
    6PEO   C155 3851   4.186   2.038   5.184 -0.1843 -0.3219 -0.5528
    6PEO   H156 3852   4.237   1.955   5.133 -1.8324 -0.9483 -1.2543
    6PEO   H157 3853   4.107   1.998   5.249 -2.6187  4.0248 -0.4803
    6PEO   O158 3854   4.122   2.112   5.090 -0.0420  0.2555  0.0502
    6PEO   H159 3855   3.924   2.039   5.036  0.6824  1.0799  1.0986
    6PEO   H15A 3856   4.072   1.943   4.990 -0.1450 -0.1248  1.4279
    6PEO   C15B 3857   4.026   2.043   4.996  0.0682  0.1514 -0.6976
    6PEO   C15C 3858   4.027   2.106   4.855 -0.1125  0.6591  0.0591
    6PEO   H15D 3859   4.129   2.139   4.830 -0.4193 -0.8238 -3.7978
    6PEO   H15E 3860   4.003   2.027   4.783 -1.6567 -0.2406  1.5002
    6PEO   O15F 3861   3.931   2.207   4.822 -0.4263  0.1124 -0.0260
    6PEO   H160 3862   4.041   2.345   4.712  0.1648 -0.9934  2.1021
    6PEO   H161 3863   3.860   2.364   4.708 -1.0118 -0.4893 -1.6683
    6PEO   C162 3864   3.944   2.293   4.704 -0.3511  0.1647 -0.0886
    6PEO   C163 3865   3.936   2.198   4.575  0.1054  0.4257 -0.4110
    6PEO   H164 3866   3.872   2.109   4.585 -0.8414  1.2424  1.2238
    6PEO   H165 3867   3.895   2.266   4.500 -2.4924  0.0281  0.5392
    6PEO   O166 3868   4.074   2.165   4.555  0.1020  0.0610  0.4581
    6PEO   H167 3869   4.180   2.112   4.391  0.0478  1.0051  1.3845
    6PEO   H168 3870   4.022   2.046   4.389  0.5579  0.2048 -0.7298
    6PEO   C169 3871   4.108   2.062   4.456  0.0109 -0.5992  0.1916
    6PEO   C16A 3872   4.165   1.939   4.532 -0.4798 -0.6658 -0.4473
    6PEO   H16B 3873   4.214   1.879   4.455 -1.0478  0.5776 -1.8285
    6PEO   H16C 3874   4.248   1.957   4.602 -0.2810 -2.1768 -0.2615
    6PEO   O16D 3875   4.065   1.867   4.605 -0.6835  0.2697 -0.1694
    6PEO   H16E 3876   4.197   1.707   4.644  0.3947 -2.5946 -2.3877
    6PEO   H16F 3877   4.070   1.671   4.537 -4.0973  0.5603  1.2032
    6PEO   C170 3878   4.091   1.730   4.628  0.4586  0.4288  0.4776
    6PEO   C171 3879   3.993   1.683   4.742 -0.6387 -0.2595  0.8805
    6PEO   H172 3880   3.889   1.713   4.727 -0.2053  0.5498 -0.8526
    6PEO   H173 3881   3.990   1.575   4.721  4.2936 -0.1601 -2.0075
    6PEO   O174 3882   4.037   1.725   4.877  0.8027  0.2488  0.0447
    6PEO   H175 3883   3.914   1.583   4.959  2.2379 -0.0497  0.7568
    6PEO   H176 3884   3.859   1.755   4.990 -0.7573 -1.0602  1.7121
    6PEO   C177 3885   3.945   1.686   4.982  0.5790  0.7087 -0.1536
    6PEO   C178 3886   4.029   1.681   5.110 -0.6560  1.0598 -0.6075
    6PEO   H179 3887   4.133   1.713   5.093 -0.1396  0.0175  0.4430
    6PEO   H17A 3888   3.984   1.742   5.190  1.7450  1.3335  0.6326
    6PEO   O17B 3889   4.027   1.546   5.159  0.5869  0.0271 -0.2906
    6PEO   H17C 3890   4.153   1.600   5.324 -0.1502  0.3817  1.5372
    6PEO   H17D 3891   4.102   1.435   5.329  1.9887  0.6237 -0.3467
    6PEO   C17E 3892   4.067   1.536   5.302  0.4080  0.1450 -0.1582
    6PEO   C17F 3893   3.952   1.568   5.402  0.0285 -0.3275  0.4282
    6PEO   H180 3894   3.859   1.516   5.376 -0.4419  0.9656 -0.6040
    6PEO   H181 3895   3.983   1.539   5.503  1.2445 -1.3082 -0.1922
    6PEO   O182 3896   3.925   1.707   5.407  0.2050 -0.2727 -0.1321
    6PEO   H183 3897   3.738   1.679   5.445 -0.5028  1.6489  1.5268
    6PEO   H184 3898   3.774   1.732   5.276 -0.3536  1.5982 -0.8367
    6PEO   C185 3899   3.794   1.750   5.383 -0.6297  0.0755 -0.4988
    6PEO   C186 3900   3.763   1.889   5.436 -0.0895 -0.0760  0.5877
    6PEO   H187 3901   3.654   1.903   5.442  0.2431  4.8038 -0.0028
    6PEO   H188 3902   3.806   1.892   5.537  0.8639  0.5012  0.1753
    6PEO   O189 3903   3.828   1.988   5.355  1.2689 -0.1878 -0.0751
    6PEO   H18A 3904   3.902   2.144   5.503 -0.1127 -0.4580  1.2505
    6PEO   H18B 3905   3.729   2.155   5.446 -0.0518  2.1654 -0.1853
    6PEO   C18C 3906   3.832   2.125   5.420 -0.1788  0.4101  1.1032
    6PEO   C18D 3907   3.873   2.238   5.318 -0.8080  0.1818 -0.0902
    6PEO   H18E 3908   3.876   2.338   5.363  2.0329  0.8510 -1.5140
    6PEO   H18F 3909   3.970   2.216   5.271 -1.3428  0.6475 -1.4608
    6PEO   O190 3910   3.775   2.252   5.213  0.7872 -0.0752 -0.1421
    6PEO   H191 3911   3.918   2.297   5.064  0.1893  1.8127 -0.3477
    6PEO   H192 3912   3.823   2.433   5.135 -1.6622 -0.3583  0.7670
    6PEO   C193 3913   3.818   2.329   5.098 -0.3652 -0.1978  0.1021
    6PEO   C194 3914   3.718   2.318   4.976 -0.8974  0.9124 -0.4048
    6PEO   H195 3915   3.758   2.376   4.891  1.6533 -1.6446 -1.1096
    6PEO   H196 3916   3.706   2.214   4.942  0.5049  1.1573 -1.7669
    6PEO   O197 3917   3.593   2.366   5.021  0.4761  0.5136  0.7673
    6PEO   H198 3918   3.397   2.395   4.975  0.0111  0.5806 -0.8447
    6PEO   H199 3919   3.488   2.311   4.855  2.1576  0.5478  0.1025
    6PEO   C19A 3920   3.496   2.394   4.927  0.5819  0.5731  0.2808
    6PEO   C19B 3921   3.525   2.529   4.861 -0.2107  0.6945  0.1581
    6PEO   H19C 3922   3.431   2.577   4.831 -0.0841 -0.1616 -1.7100
    6PEO   H19D 3923   3.568   2.593   4.939  1.2249 -0.4493  0.3487
    6PEO   O19E 3924   3.622   2.514   4.758 -0.8565 -0.5757 -0.1221
    6PEO   H19F 3925   3.674   2.722   4.733 -1.3396 -0.2929 -0.5775
    6PEO   H1A0 3926   3.541   2.665   4.633 -1.7345 -0.8285  1.5012
    6PEO   C1A1 3927   3.637   2.635   4.676 -0.9867 -0.7854 -0.0619
    6PEO   C1A2 3928   3.719   2.602   4.551 -0.4949  0.2008  0.1467
    6PEO   H1A3 3929   3.688   2.503   4.514  2.9540 -0.3819 -1.6336
    6PEO   H1A4 3930   3.693   2.673   4.472 -2.4280 -0.7263 -0.1225
    6PEO   O1A5 3931   3.860   2.614   4.574  0.5214 -0.5837  0.4426
    6PEO   H1A6 3932   3.931   2.669   4.378 -0.6428 -0.8044 -1.3293
    6PEO   H1A7 3933   3.952   2.495   4.416 -1.6900 -0.7191  1.0024
    6PEO   C1A8 3934   3.946   2.596   4.459  0.1397  0.1576 -0.5897
    6PEO   C1A9 3935   4.088   2.628   4.520 -0.6123 -0.4354  0.4101
    6PEO   H1AA 3936   4.088   2.722   4.576  2.4934  0.8772 -1.5414
    6PEO   H1AB 3937   4.098   2.552   4.599 -1.5250 -0.6869  0.3018
    6PEO   O1AC 3938   4.188   2.627   4.411  0.1410 -0.0444  0.0279
    6PEO   H1AD 3939   4.336   2.618   4.550  2.9000  0.2363 -0.2502
    6PEO   H1AE 3940   4.286   2.780   4.496  0.7739  0.7323  0.0573
    6PEO   C1AF 3941   4.309   2.678   4.463 -0.0111  0.3554  0.6521
    6PEO   C1B0 3942   4.415   2.654   4.350 -0.0408 -0.7780  0.2777
    6PEO   H1B1 3943   4.513   2.640   4.396  0.1654 -2.3450 -0.5899
    6PEO   H1B2 3944   4.388   2.564   4.293  1.1790 -0.5804 -0.6490
    6PEO   O1B3 3945   4.413   2.768   4.258 -0.7927  0.3338 -0.3644
    6PEO   H1B4 3946   4.617   2.820   4.282  0.4314 -0.0943 -0.7165
    6PEO   H1B5 3947   4.508   2.919   4.382 -1.2855 -1.0443  0.9689
    6PEO   C1B6 3948   4.519   2.869   4.284  0.4829 -0.0217  0.6091
    6PEO   C1B7 3949   4.527   2.966   4.170  0.2634 -0.1618 -0.8856
    6PEO   H1B8 3950   4.481   3.063   4.194  0.3597  1.0090 -4.7642
    6PEO   H1B9 3951   4.636   2.975   4.154  0.0577  0.1371 -2.2479
    6PEO   O1BA 3952   4.479   2.909   4.046  0.8813  1.2755 -0.2931
    6PEO   H1BB 3953   4.471   2.705   4.019 -1.8353  2.1070 -1.0540
    6PEO   H1BC 3954   4.643   2.767   4.044  0.2438  0.2499 -0.5513
    6PEO   C1BD 3955   4.545   2.784   3.997  0.0123  0.7768  0.1083
    6PEO   C1BE 3956   4.562   2.783   3.842  0.7991  0.7052  0.0817
    6PEO   H1BF 3957   4.585   2.682   3.805 -1.0598  0.6848 -1.1876
    6PEO   H1C0 3958   4.469   2.826   3.801  0.2707 -1.1819 -0.8390
    6PEO   O1C1 3959   4.673   2.865   3.815 -0.5088  0.4182  0.2065
    6PEO   H1C2 3960   4.583   2.941   3.642  0.0269  0.4717 -1.1252
    6PEO   H1C3 3961   4.733   2.841   3.614 -0.0369 -0.1933 -0.1012
    6PEO   C1C4 3962   4.683   2.914   3.679 -0.1870  0.2426 -0.6962
    6PEO   C1C5 3963   4.764   3.040   3.684  0.1833  0.3615 -0.7593
    6PEO   H1C6 3964   4.749   3.083   3.584  1.2831 -1.5827 -1.8291
    6PEO   H1C7 3965   4.737   3.109   3.765  1.3402  0.4652 -0.4337
    6PEO   O1C8 3966   4.898   3.009   3.700  0.4002  0.0341  0.1140
    6PEO   H1C9 3967   5.009   3.182   3.667  0.7117 -0.1621  1.5493
    6PEO   H1CA 3968   4.943   3.110   3.520 -1.7984 -2.5893  0.1649
    6PEO   C1CB 3969   4.988   3.086   3.618  0.3931  0.6106  0.0984
    6PEO   C1CC 3970   5.133   3.027   3.601 -0.1064  0.2933 -0.0557
    6PEO   H1CD 3971   5.202   3.103   3.559  1.6080 -0.0595  1.9460
    6PEO   H1CE 3972   5.189   3.006   3.693  1.5025  1.8007 -0.6372
    6PEO   O1CF 3973   5.133   2.902   3.523 -0.3054 -0.0924  0.3830
    6PEO   H1D0 3974   5.322   2.841   3.515 -0.2431 -3.4844  0.1064
    6PEO   H1D1 3975   5.270   2.950   3.369 -2.8926 -0.5023 -2.3028
    6PEO   C1D2 3976   5.246   2.869   3.441  1.0540  0.0564 -0.0631
    6PEO   C1D3 3977   5.232   2.734   3.373  0.3939  1.1397 -0.4802
    6PEO   H1D4 3978   5.331   2.700   3.340  0.1653 -0.0920  0.0579
    6PEO   H1D5 3979   5.201   2.651   3.437  2.4633 -0.2027 -1.1300
    6PEO   O1D6 3980   5.149   2.749   3.254  0.3193  0.5146  0.2396
    6PEO   H1D7 3981   5.042   2.565   3.265  0.8037 -1.0208  0.2791
    6PEO   H1D8 3982   5.188   2.554   3.177  0.4457 -0.7094  0.2856
    6PEO   C1D9 3983   5.104   2.623   3.196  0.3450 -0.7724  0.0716
    6PEO   C1DA 3984   5.013   2.647   3.073  0.5366 -0.3251 -0.3331
    6PEO   H1DB 3985   4.976   2.548   3.042 -2.1101  0.4002  0.2424
    6PEO   H1DC 3986   4.924   2.709   3.088 -0.3993 -1.7132  0.0803
    6PEO   O1DD 3987   5.082   2.715   2.974  0.3140 -0.8841 -0.2042
    6PEO   H1DE 3988   4.936   2.845   2.892  0.3999  0.2802 -1.2699
    6PEO   H1DF 3989   4.955   2.687   2.811  3.3236 -0.5090 -2.6011
    6PEO   C1E0 3990   5.009   2.771   2.858  0.6661 -0.2657  0.3947
    6PEO   C1E1 3991   5.099   2.831   2.750 -0.0837  0.0081 -0.2663
    6PEO   H1E2 3992   5.177   2.758   2.723  1.9685  1.8152  0.5072
    6PEO   H1E3 3993   5.037   2.863   2.666 -0.0921  4.2966  1.1446
    6PEO   O1E4 3994   5.162   2.946   2.815  0.6841 -0.0507 -0.5800
    6PEO   H1E5 3995   5.202   3.049   2.647  0.2521  0.5495  0.5770
    6PEO   H1E6 3996   5.339   2.951   2.726 -1.0049 -0.5836  0.7622
    6PEO   C1E7 3997   5.254   3.020   2.739  0.2563  1.0305  0.7277
    6PEO   C1E8 3998   5.287   3.146   2.818  0.7935  0.5449  0.7764
    6PEO   H1E9 3999   5.339   3.224   2.760  1.2546 -0.6020 -0.3982
    6PEO   H1EA 4000   5.197   3.190   2.862 -0.1855  1.5743 -2.0498
    6PEO   O1EB 4001   5.380   3.117   2.922  0.1995 -0.0243 -0.8734
    6PEO   H1EC 4002   5.232   3.008   3.026 -1.6392 -0.2735  0.9902
    6PEO   H1ED 4003   5.347   3.094   3.125 -1.5053  0.2845 -0.7045
    6PEO   C1EE 4004   5.338   3.038   3.031 -1.5478 -0.3565 -0.3231
    6PEO   C1EF 4005   5.434   2.920   3.037  0.4935 -0.5838  0.1756
    6PEO   H1F0 4006   5.395   2.846   3.109 -0.3141 -0.1744  0.1710
    6PEO   H1F1 4007   5.433   2.865   2.942  2.0717  1.6041 -1.1945
    6PEO   O1F2 4008   5.573   2.952   3.074 -0.5219 -0.2109 -0.7983
    6PEO   H1F3 4009   5.755   3.018   3.004 -0.8654  0.6226  0.0580
    6PEO   H1F4 4010   5.612   3.052   2.895 -1.4021  0.3958  0.0976
    6PEO   C1F5 4011   5.661   2.980   2.961 -0.4604  0.3574 -0.6175
    6PEO   C1F6 4012   5.702   2.851   2.876  0.1729  0.4891  0.0399
    6PEO   H1F7 4013   5.621   2.831   2.805 -0.8840  1.8055  0.8063
    6PEO   H1F8 4014   5.798   2.876   2.828  1.7161 -0.8520  2.2373
    6PEO   O1F9 4015   5.712   2.735   2.957  0.7349  0.0599 -0.0697
    6PEO   H1FA 4016   5.743   2.532   2.968  3.6762  0.8883  0.3667
    6PEO   H1FB 4017   5.804   2.615   2.823  0.1963  1.8848  0.5310
    6PEO   C1FC 4018   5.718   2.606   2.890  0.2480 -0.0610  0.4152
    6PEO   C1FD 4019   5.585   2.579   2.815 -0.0421  0.3898  0.7104
    6PEO   H1FE 4020   5.538   2.668   2.771  1.4794  0.3546 -1.1012
    6PEO   H1FF 4021   5.603   2.507   2.734 -1.9622  2.2616 -1.5268
    6PEO   O200 4022   5.495   2.532   2.916 -0.4826 -0.2796 -0.1430
    6PEO   H201 4023   5.354   2.670   2.882  2.7280 -0.2233 -2.5659
    6PEO   H202 4024   5.312   2.546   3.011 -0.9307  0.1789 -1.1068
    6PEO   C203 4025   5.356   2.564   2.912 -0.2150  0.1194 -0.8136
    6PEO   C204 4026   5.282   2.474   2.812  0.3324  0.4965  0.4796
    6PEO   H205 4027   5.318   2.370   2.813  0.2633  0.4687  1.5964
    6PEO   H206 4028   5.173   2.468   2.825  0.2499 -0.2829 -0.4710
    6PEO   O207 4029   5.311   2.532   2.681 -0.2399  0.1054 -0.8106
    6PEO   H208 4030   5.279   2.350   2.587 -0.9783  0.0401 -0.6681
    6PEO   H209 4031   5.308   2.504   2.488  0.5989 -0.4843 -0.2530
    6PEO   C20A 4032   5.260   2.458   2.576 -0.1233  0.2358 -0.2572
    6PEO   C20B 4033   5.102   2.478   2.569 -0.2419  0.6893 -1.0597
    6PEO   H20C 4034   5.083   2.582   2.599  0.7596  0.7355 -0.5558
    6PEO   H20D 4035   5.063   2.464   2.467 -0.5846  2.0166 -1.1334
    6PEO   O20E 4036   5.038   2.387   2.656  0.4057 -0.1514  0.3730
    6PEO   H20F 4037   4.869   2.519   2.647 -1.8679  0.8162  1.9440
    6PEO   H210 4038   4.866   2.396   2.785 -0.6038 -3.5842 -0.7539
    6PEO   C211 4039   4.899   2.419   2.683 -0.7571  0.3757 -0.0788
    6PEO   C212 4040   4.805   2.333   2.595 -0.0980 -0.2499  0.3998
    6PEO   H213 4041   4.705   2.359   2.635  0.4807  3.8255 -0.3570
    6PEO   H214 4042   4.811   2.372   2.492  0.8192 -2.1534 -0.3149
    6PEO   O215 4043   4.817   2.186   2.607 -0.0642  0.2763  0.2027
    6PEO   H216 4044   4.887   2.004   2.552 -1.6054  0.1468  1.2860
    6PEO   H217 4045   5.020   2.113   2.579  0.3566 -2.9521  1.2156
    6PEO   C218 4046   4.918   2.109   2.539  0.6131 -0.5806  0.1611
    6PEO   C219 4047   4.920   2.138   2.381  0.3126 -0.1057  0.4366
    6PEO   H21A 4048   4.971   2.054   2.331  1.0866  1.2181 -1.0873
    6PEO   H21B 4049   4.822   2.148   2.333 -0.4021 -0.4485  1.7940
    6PEO   O21C 4050   5.004   2.251   2.361 -0.2102 -0.1713 -0.3952
    6PEO   H21D 4051   4.913   2.344   2.196 -1.6757 -2.8923 -0.3772
    6PEO   H21E 4052   5.023   2.211   2.161  2.6122 -1.7458  4.9912
    6PEO   C21F 4053   5.008   2.298   2.227  0.0162  1.1240  1.0597
    6PEO   C220 4054   5.127   2.401   2.198 -0.1054  1.1016 -0.4895
    6PEO   H221 4055   5.108   2.468   2.113  0.4805 -1.4419 -2.7431
    6PEO   H222 4056   5.147   2.470   2.282  1.3816  1.0913 -0.8091
    6PEO   O223 4057   5.248   2.329   2.166 -0.4283 -0.1252 -0.5985
    6PEO   H224 4058   5.447   2.315   2.181 -1.5328 -0.7873  1.9146
    6PEO   H225 4059   5.385   2.466   2.244  0.1650  1.0207 -0.3980
    6PEO   C226 4060   5.376   2.396   2.159  0.0995  0.2777  0.2103
    6PEO   C227 4061   5.378   2.470   2.018 -0.2960 -0.9235  0.4607
    6PEO   H228 4062   5.480   2.493   1.986 -0.1602  0.0297  1.5249
    6PEO   H229 4063   5.335   2.422   1.929 -0.3590 -0.7370  0.3891
    6PEO   O22A 4064   5.306   2.607   2.033  1.4129  0.3105  0.5218
    6PEO   H22B 4065   5.291   2.639   1.828 -4.5578  0.0194  0.9555
    6PEO   H22C 4066   5.407   2.747   1.931  0.4401 -1.1370  2.8626
    6PEO   C22D 4067   5.310   2.695   1.921 -0.2709  0.4658  0.0297
    6PEO   C22E 4068   5.191   2.788   1.935  0.4237 -0.5543 -0.1328
    6PEO   H22F 4069   5.199   2.852   2.024 -0.9823 -0.7066  0.1241
    6PEO   H230 4070   5.196   2.869   1.861  0.5473  0.4494  0.9479
    6PEO   O231 4071   5.064   2.712   1.934 -0.5637  0.2338  0.3369
    6PEO   H232 4072   4.959   2.875   1.932 -2.9248 -0.9288 -1.9263
    6PEO   H233 4073   4.962   2.776   2.090  0.5234 -1.1036  0.3880
    6PEO   C234 4074   4.951   2.777   1.980 -0.0734 -0.1552  0.4467
    6PEO   C235 4075   4.822   2.700   1.941  0.7888  0.0088 -0.8521
    6PEO   H236 4076   4.743   2.773   1.916 -0.7648 -1.5168 -0.5963
    6PEO   H237 4077   4.844   2.645   1.848 -0.3317 -1.5460 -0.2422
    6PEO   O238 4078   4.781   2.617   2.042  0.4687 -0.8950 -0.1816
    6PEO   H239 4079   4.572   2.582   2.016  0.7168  0.6690 -0.0017
    6PEO   H23A 4080   4.625   2.724   2.116 -2.3425 -0.3208  1.8280
    6PEO   C23B 4081   4.647   2.621   2.086  0.2411  0.5146  0.6057
    6PEO   C23C 4082   4.630   2.543   2.222 -0.1076 -0.0223  1.1528
    6PEO   H23D 4083   4.719   2.538   2.285  0.2926 -1.4331  0.5133
    6PEO   H23E 4084   4.542   2.584   2.275 -0.6516  1.2508 -0.6368
    6PEO   O23F 4085   4.609   2.399   2.194 -0.0635 -0.0152  0.4029
    6PEO   H240 4086   4.520   2.354   2.376  0.0323  0.2853  0.3252
    6PEO   H241 4087   4.689   2.296   2.364  0.3291 -1.3832 -1.5295
    6PEO   C242 4088   4.596   2.310   2.308 -0.4384 -0.0683  0.0173
    6PEO   C243 4089   4.566   2.172   2.240 -0.5089 -0.1842 -0.2591
    6PEO   H244 4090   4.651   2.130   2.183 -0.8212 -1.2972  0.0681
    6PEO   H245 4091   4.542   2.107   2.326 -1.4759  1.8878  1.1007
    6PEO   O246 4092   4.454   2.185   2.156 -0.4604 -0.0221  0.3072
    6PEO   H247 4093   4.512   2.042   2.023  1.0357  0.8876  1.1095
    6PEO   H248 4094   4.341   2.097   2.005 -1.1588 -0.0132  1.0871
    6PEO   C249 4095   4.422   2.075   2.077 -0.0782 -0.0423 -0.0978
    6PEO   C24A 4096   4.388   1.948   2.157  0.4460 -0.1017  0.8398
    6PEO   H24B 4097   4.332   1.874   2.099 -1.2937  1.4424  0.4365
    6PEO   H24C 4098   4.481   1.900   2.190  0.9603 -0.7900 -1.4402
    6PEO   O24D 4099   4.301   1.995   2.257 -0.0453 -0.1190  0.6402
    6PEO   H24E 4100   4.251   1.814   2.350  0.0911 -0.6186  3.3761
    6PEO   H24F 4101   4.195   1.963   2.429  0.7482  0.9063 -0.0684
    6PEO   C250 4102   4.277   1.918   2.372  0.3414  0.1459 -0.0689
    6PEO   C251 4103   4.396   1.911   2.470 -0.1110 -0.3318 -0.4942
    6PEO   H252 4104   4.428   2.013   2.497 -2.0984  0.4537 -0.9567
    6PEO   H253 4105   4.358   1.866   2.563 -1.9609  1.6645 -0.2143
    6PEO   O254 4106   4.515   1.849   2.414  0.7311  0.1972  0.1942
    6PEO   H255 4107   4.607   1.790   2.594 -2.3259  1.4410  0.0775
    6PEO   H256 4108   4.664   1.946   2.524 -0.6559 -0.2455  2.7041
    6PEO   C257 4109   4.635   1.842   2.501  0.8170 -0.1590 -0.0100
    6PEO   C258 4110   4.753   1.779   2.431  1.0922 -0.1964 -0.5722
    6PEO   H259 4111   4.837   1.776   2.502  0.3745 -3.8123  0.3344
    6PEO   H25A 4112   4.716   1.678   2.406  1.8965 -0.9195  1.0074
    6PEO   O25B 4113   4.788   1.855   2.319 -0.0726  0.0027 -0.4439
    6PEO   H25C 4114   4.789   1.705   2.171  1.2180 -1.8586  1.3658
    6PEO   H25D 4115   4.941   1.724   2.255 -0.5124  0.3363 -0.4082
    6PEO   C25E 4116   4.856   1.781   2.214 -0.4467  0.6436 -0.1308
    6PEO   C25F 4117   4.904   1.871   2.106  0.1027  0.1044  0.1038
    6PEO   H260 4118   4.925   1.810   2.017  2.6742  1.9843 -0.6943
    6PEO   H261 4119   4.830   1.941   2.065  1.3497  0.4160 -1.7408
    6PEO   O262 4120   5.030   1.927   2.147  0.4612 -0.2104 -0.0498
    6PEO   H263 4121   5.024   2.068   1.995  3.1604  0.7388 -0.9648
    6PEO   H264 4122   5.089   1.902   1.953  0.6902 -2.4597  1.6364
    6PEO   C265 4123   5.082   1.981   2.030  0.5721 -0.7446 -0.0627
    6PEO   C266 4124   5.231   2.032   2.046 -0.1684  0.0698 -0.2177
    6PEO   H267 4125   5.265   2.107   1.972 -1.8860  0.7836 -0.3467
    6PEO   H268 4126   5.229   2.088   2.141  0.8075  1.1911 -0.8227
    6PEO   O269 4127   5.329   1.931   2.047  0.2920 -0.3003  0.1204
    6PEO   H26A 4128   5.524   1.891   2.122 -0.3392 -1.2935 -0.9412
    6PEO   H26B 4129   5.444   2.046   2.168 -2.8942 -0.0243 -0.6814
    6PEO   C26C 4130   5.459   1.973   2.087  0.1308 -0.4394  0.1472
    6PEO   C26D 4131   5.532   2.047   1.982 -0.4455 -0.4141  0.3747
    6PEO   H26E 4132   5.490   2.148   1.967 -0.0406 -0.0444  1.6065
    6PEO   H26F 4133   5.631   2.053   2.029  0.3020 -0.1008 -1.1852
    6PEO   O270 4134   5.533   1.975   1.859 -0.4001 -0.2539 -0.2713
    6PEO   H271 4135   5.702   2.054   1.764  0.2002 -0.7261  0.4766
    6PEO   H272 4136   5.551   2.162   1.751 -1.4704  0.4516 -0.4219
    6PEO   C273 4137   5.593   2.061   1.757  0.3478  1.1544 -0.5461
    6PEO   C274 4138   5.567   1.980   1.622 -0.7158 -0.0940 -0.2276
    6PEO   H275 4139   5.647   2.011   1.553  1.2312 -1.0126  1.5087
    6PEO   H276 4140   5.571   1.872   1.643  0.3537 -0.3664 -1.6781
    6PEO   O277 4141   5.434   2.012   1.571  0.2501 -0.1247 -0.6743
    6PEO   H278 4142   5.490   2.036   1.374 -0.4097 -0.0732  0.4154
    6PEO   H279 4143   5.315   1.993   1.409  0.1618 -0.4914  0.7960
    6PEO   C27A 4144   5.420   1.975   1.434  0.1997 -0.7311  0.4767
    6PEO   C27B 4145   5.440   1.820   1.413 -0.7313 -0.7467  0.0569
    6PEO   H27C 4146   5.413   1.773   1.509 -1.1782  2.1332  1.4441
    6PEO   H27D 4147   5.371   1.782   1.336 -0.1475 -0.6495 -0.5200
    6PEO   O27E 4148   5.578   1.809   1.387  0.2588  0.0249  0.2051
    6PEO   H27F 4149   5.612   1.606   1.321  0.4914  2.1836 -2.7188
    6PEO   H280 4150   5.631   1.645   1.498 -1.6837  1.4829  0.8334
    6PEO   C281 4151   5.651   1.677   1.395  0.6442 -0.9235  0.4545
    6PEO   C282 4152   5.802   1.695   1.372  0.3721 -0.2990 -0.0092
    6PEO   H283 4153   5.850   1.598   1.390  1.6343  0.6487  2.2241
    6PEO   H284 4154   5.817   1.718   1.266  0.4296 -0.3403 -0.0100
    6PEO   O285 4155   5.847   1.806   1.452 -0.5938  0.7501  0.3960
    6PEO   H286 4156   6.026   1.847   1.337 -0.3302  0.9718 -0.2419
    6PEO   H287 4157   6.042   1.753   1.493  0.5871  0.6753  0.8092
    6PEO   C288 4158   5.990   1.834   1.440  0.0998 -0.2956 -0.2325
    6PEO   C289 4159   6.023   1.963   1.524  0.4665  0.2713  0.7438
    6PEO   H28A 4160   5.987   1.953   1.627 -0.8397  0.7114  0.3564
    6PEO   H28B 4161   6.128   1.993   1.526 -0.0489  2.3816 -0.4002
    6PEO   O28C 4162   5.954   2.076   1.472  0.4715  0.7775  0.3816
    6PEO   H28D 4163   6.086   2.216   1.572  0.2700  2.3853 -2.4392
    6PEO   H28E 4164   5.911   2.225   1.611  0.5629  2.1149 -0.2116
    6PEO   C28F 4165   5.984   2.207   1.531 -0.3296  0.1324 -0.6458
    6PEO   C290 4166   5.974   2.316   1.419 -0.8711  0.1678 -1.4306
    6PEO   H291 4167   6.033   2.400   1.457  0.0056 -0.3260 -1.6708
    6PEO   H292 4168   6.015   2.277   1.325  1.1785  2.7182 -1.6920
    6PEO   O293 4169   5.834   2.348   1.413 -0.5718  0.6821 -0.2930
    6PEO   H294 4170   5.746   2.158   1.393 -1.8353  1.0837  1.1267
    6PEO   H295 4171   5.806   2.223   1.240 -1.5030 -2.2800  0.3235
    6PEO   C296 4172   5.763   2.251   1.337 -0.1853  0.2875  0.2528
    6PEO   C297 4173   5.628   2.312   1.305 -0.0517  0.3326  0.2822
    6PEO   H298 4174   5.577   2.229   1.252 -0.1337  0.5379  0.0360
    6PEO   H299 4175   5.561   2.335   1.388 -0.8509  1.0598 -0.5414
    6PEO   O29A 4176   5.633   2.426   1.215 -0.0932  0.0144  0.3191
    6PEO   H29B 4177   5.707   2.574   1.349 -1.6417  3.4671  1.1845
    6PEO   H29C 4178   5.527   2.559   1.346  0.4176  1.0704 -0.0817
    6PEO   C29D 4179   5.619   2.552   1.286  0.1775 -0.5189 -0.3083
    6PEO   C29E 4180   5.615   2.666   1.184  0.2501  0.9317  0.1320
    6PEO   H29F 4181   5.598   2.750   1.253  1.4172  0.6770  0.7613
    6PEO   H2A0 4182   5.713   2.677   1.135  0.0236 -0.5091 -0.7163
    6PEO   O2A1 4183   5.506   2.639   1.088 -0.2481 -0.1042 -0.2960
    6PEO   H2A2 4184   5.580   2.775   0.945 -0.5066  0.5731 -0.1860
    6PEO   H2A3 4185   5.434   2.826   1.027  2.3326  1.0819  0.0171
    6PEO   C2A4 4186   5.489   2.736   0.993  0.5058 -0.4770  0.9819
    6PEO   C2A5 4187   5.399   2.672   0.885  0.2696 -0.2583 -0.2399
    6PEO   H2A6 4188   5.384   2.735   0.796  0.2394 -0.3703 -0.3136
    6PEO   H2A7 4189   5.444   2.579   0.849  0.3884  0.0952 -1.0391
    6PEO   O2A8 4190   5.270   2.652   0.948 -0.1151  0.4615  0.2352
    6PEO   H2A9 4191   5.162   2.493   0.841  1.4262 -0.1275 -2.5392
    6PEO   H2AA 4192   5.168   2.626   0.752 -2.9387  0.2292  0.4257
    6PEO   C2AB 4193   5.164   2.601   0.859 -0.2325 -0.4507  0.4313
    6PEO   C2AC 4194   5.019   2.625   0.912  0.7781  0.2487  0.1691
    6PEO   H2AD 4195   4.947   2.579   0.843 -0.6753 -0.1900  1.8991
    6PEO   H2AE 4196   5.008   2.592   1.016 -0.3674 -2.1542 -0.6259
    6PEO   O2AF 4197   4.987   2.762   0.909 -0.0171 -0.0192 -0.5443
    6PEO   H2B0 4198   5.142   2.811   1.047 -0.0048 -2.3686 -0.6533
    6PEO   H2B1 4199   4.976   2.802   1.116  4.0319  0.9197  2.6759
    6PEO   C2B2 4200   5.035   2.833   1.029  0.4473  0.7724 -0.0692
    6PEO   C2B3 4201   5.017   2.980   1.001  0.1844 -0.0418  0.4611
    6PEO   H2B4 4202   4.920   3.010   0.959  0.8094  0.9664 -0.3107
    6PEO   H2B5 4203   5.024   3.027   1.100 -0.5296 -1.4103  1.1876
    6PEO   O2B6 4204   5.119   3.035   0.912 -0.3110 -0.5029 -0.4693
    6PEO   H2B7 4205   5.229   3.215   0.866 -0.2173 -0.8791 -1.3442
    6PEO   H2B8 4206   5.147   3.203   1.008 -0.6736  0.5751 -0.3446
    6PEO   C2B9 4207   5.132   3.177   0.902 -0.3831  0.4192 -0.3492
    6PEO   C2BA 4208   5.019   3.248   0.825  0.5851 -0.2587  0.2560
    6PEO   H2BB 4209   5.060   3.323   0.755 -0.8305  1.9676  1.6673
    6PEO   H2BC 4210   4.953   3.175   0.776 -1.6130 -0.0703  2.7252
    6PEO   O2BD 4211   4.937   3.314   0.925  0.4025  0.2461 -0.1195
    6PEO   H2BE 4212   4.871   3.248   0.950 -2.3826  2.3433 -1.4405
    7PEO   H001 4213   2.427   2.880   0.988 -1.4622  1.8304 -1.8759
    7PEO   H002 4214   2.435   2.712   0.936  1.1917  0.6760  0.9585
    7PEO   H003 4215   2.400   2.824   0.813  0.5908 -1.1120 -0.0788
    7PEO   C004 4216   2.381   2.807   0.920 -0.5528 -0.4371 -0.1549
    7PEO   C005 4217   2.236   2.779   0.953 -1.1148  0.4211  0.6201
    7PEO   H006 4218   2.173   2.839   0.887 -0.1330  1.3868  0.5422
    7PEO   H007 4219   2.202   2.674   0.947 -2.3526  0.6468  2.7446
    7PEO   O008 4220   2.218   2.819   1.088 -0.4913  0.2160 -0.2195
    7PEO   H009 4221   2.108   2.804   1.251 -0.4755 -1.1063 -0.9905
    7PEO   H00A 4222   2.073   2.674   1.133 -1.6391  0.0424 -0.6610
    7PEO   C00B 4223   2.096   2.781   1.144 -0.3794 -0.1586 -1.2146
    7PEO   C00C 4224   1.973   2.879   1.105 -0.5824  0.3388 -0.3368
    7PEO   H00D 4225   1.918   2.894   1.199 -0.8574 -0.5885 -0.3409
    7PEO   H00E 4226   2.005   2.983   1.089  1.2683 -0.2208 -0.5671
    7PEO   O00F 4227   1.885   2.818   1.001 -0.1686  0.0565 -0.1964
    7PEO   H010 4228   1.823   3.009   0.958  2.5505 -0.1434 -0.2122
    7PEO   H011 4229   1.699   2.886   0.923  0.3944  1.8231 -0.7509
    7PEO   C012 4230   1.807   2.907   0.922  0.8756 -0.2342  0.7040
    7PEO   C013 4231   1.854   2.908   0.780  0.0492 -0.0514 -0.1577
    7PEO   H014 4232   1.854   2.806   0.739 -0.8986 -0.3844  0.6278
    7PEO   H015 4233   1.773   2.959   0.727 -2.3901 -0.5665  2.7629
    7PEO   O016 4234   1.984   2.967   0.777  0.0905 -0.2687  0.1738
    7PEO   H017 4235   1.938   3.094   0.625  0.2057 -0.6711 -2.2817
    7PEO   H018 4236   2.048   2.958   0.579  2.1845 -0.2572  1.2019
    7PEO   C019 4237   2.024   3.032   0.656  0.0385  0.2350  0.1401
    7PEO   C01A 4238   2.141   3.133   0.679  0.3576 -0.3902 -0.5190
    7PEO   H01B 4239   2.159   3.193   0.588 -2.2581 -0.2970 -1.0357
    7PEO   H01C 4240   2.130   3.199   0.767  2.4925 -0.8969  0.2029
    7PEO   O01D 4241   2.267   3.075   0.705 -0.3512  0.3535 -1.0525
    7PEO   H01E 4242   2.369   3.196   0.831 -0.8362 -2.5509  0.1192
    7PEO   H01F 4243   2.386   3.237   0.651  0.9762  1.3413  0.2592
    7PEO   C020 4244   2.378   3.159   0.728 -0.9534  0.2480 -0.9857
    7PEO   C021 4245   2.507   3.071   0.707 -0.4517 -0.7154 -0.2933
    7PEO   H022 4246   2.482   2.980   0.651  0.9274 -1.5857  0.4469
    7PEO   H023 4247   2.576   3.133   0.648 -1.0459  1.4208  1.1410
    7PEO   O024 4248   2.560   3.043   0.835  0.4124  0.1967 -0.1800
    7PEO   H025 4249   2.723   3.005   0.962 -1.3407  1.2228  0.4124
    7PEO   H026 4250   2.761   3.118   0.835 -1.3027  1.4411  2.3476
    7PEO   C027 4251   2.703   3.027   0.856  0.1563 -0.1980 -0.2005
    7PEO   C028 4252   2.744   2.912   0.768  0.2959  0.6390  0.0358
    7PEO   H029 4253   2.727   2.928   0.661  1.8930 -2.1648 -0.7567
    7PEO   H02A 4254   2.852   2.897   0.787 -0.0482 -2.0636  0.2817
    7PEO   O02B 4255   2.683   2.794   0.818 -0.2754  0.0987 -0.4500
    7PEO   H02C 4256   2.836   2.648   0.826  3.0311  2.5063 -2.6863
    7PEO   H02D 4257   2.773   2.675   0.659  0.7218 -0.6459  0.2749
    7PEO   C02E 4258   2.747   2.673   0.766  0.3957  0.8273  0.2386
    7PEO   C02F 4259   2.650   2.554   0.784  0.5673  0.1363  0.1704
    7PEO   H030 4260   2.702   2.462   0.752  0.8424  1.0652 -2.2542
    7PEO   H031 4261   2.623   2.556   0.890 -1.3339  0.3434 -0.2765
    7PEO   O032 4262   2.536   2.579   0.707  0.3510  0.4759 -0.1151
    7PEO   H033 4263   2.404   2.479   0.835  0.7030  1.4688 -0.4122
    7PEO   H034 4264   2.483   2.370   0.713  0.9731  0.4958 -0.0270
    7PEO   C035 4265   2.436   2.468   0.731  0.6005  0.3751 -0.3352
    7PEO   C036 4266   2.314   2.490   0.636  0.3560 -0.2721  0.0274
    7PEO   H037 4267   2.349   2.497   0.532 -0.7565  0.7627 -0.3132
    7PEO   H038 4268   2.245   2.405   0.641 -0.2536 -0.0394 -2.8144
    7PEO   O039 4269   2.234   2.610   0.681 -0.3296 -0.4969 -0.5525
    7PEO   H03A 4270   2.374   2.757   0.602  0.3275 -0.7968 -1.0718
    7PEO   H03B 4271   2.221   2.820   0.664  0.6128  0.9487 -1.1970
    7PEO   C03C 4272   2.266   2.735   0.611  0.2721 -0.1287  0.1477
    7PEO   C03D 4273   2.205   2.725   0.470  0.1098 -0.5933  0.2170
    7PEO   H03E 4274   2.111   2.669   0.477  0.0625 -1.3763 -3.8777
    7PEO   H03F 4275   2.190   2.829   0.435 -1.3955 -0.7758  0.2573
    7PEO   O040 4276   2.292   2.659   0.376  0.0087  0.1472  0.1353
    7PEO   H041 4277   2.320   2.786   0.216  1.8223 -0.0072  1.0817
    7PEO   H042 4278   2.160   2.714   0.213  1.1199  2.3017  0.2874
    7PEO   C043 4279   2.264   2.694   0.241  0.6715  0.6237  0.8766
    7PEO   C044 4280   2.322   2.579   0.154 -0.0013  0.4796  0.6618
    7PEO   H045 4281   2.319   2.599   0.046  1.9823 -4.0009 -0.4550
    7PEO   H046 4282   2.419   2.540   0.187 -1.1329 -1.3662  1.9947
    7PEO   O047 4283   2.242   2.462   0.176  0.5974 -0.1576 -0.1781
    7PEO   H048 4284   2.382   2.320   0.112  0.4509  2.5462 -0.1147
    7PEO   H049 4285   2.266   2.366  -0.011 -0.9098 -2.1890 -1.0894
    7PEO   C04A 4286   2.275   2.344   0.097 -0.3537 -1.0223 -0.8734
    7PEO   C04B 4287   2.184   2.223   0.132 -0.8938 -0.0551  0.4646
    7PEO   H04C 4288   2.077   2.234   0.111 -0.7130 -1.8926 -1.9737
    7PEO   H04D 4289   2.226   2.146   0.064 -0.1330  0.8786 -0.1483
    7PEO   O04E 4290   2.211   2.199   0.270  0.1922 -0.5770 -0.2644
    7PEO   H04F 4291   2.202   1.999   0.240  1.3308  0.9680 -0.6204
    7PEO   H050 4292   2.053   2.071   0.296 -0.5398 -1.8235  2.2503
    7PEO   C051 4293   2.162   2.070   0.314 -0.0441 -0.2215 -0.1704
    7PEO   C052 4294   2.204   2.035   0.456  0.0758  0.1326  0.5278
    7PEO   H053 4295   2.201   1.925   0.457  2.3748 -0.0843 -2.6423
    7PEO   H054 4296   2.305   2.069   0.483  1.1420 -1.4937 -1.1546
    7PEO   O055 4297   2.114   2.099   0.544  0.4010 -0.3247  0.0138
    7PEO   H056 4298   2.199   2.179   0.710 -3.2148  2.2451 -0.5599
    7PEO   H057 4299   2.208   1.998   0.699 -0.6085 -0.6762 -1.2467
    7PEO   C058 4300   2.147   2.087   0.681 -0.3217 -0.0135  0.8305
    7PEO   C059 4301   2.016   2.071   0.768 -0.1594 -0.2816  0.4799
    7PEO   H05A 4302   2.013   2.126   0.863  0.4096  1.8806 -0.7006
    7PEO   H05B 4303   1.940   2.103   0.695  3.1499  3.4278 -1.7459
    7PEO   O05C 4304   1.996   1.933   0.813 -0.1427  0.5035  0.3327
    7PEO   H05D 4305   2.008   1.793   0.966  2.7380 -0.4065  3.1118
    7PEO   H05E 4306   2.006   1.953   1.023  3.3820  2.3543 -0.0115
    7PEO   C05F 4307   2.049   1.892   0.942  0.7151 -0.1349  0.2562
    7PEO   C060 4308   2.197   1.898   0.953 -0.1635  0.0677  0.5986
    7PEO   H061 4309   2.237   2.000   0.937  0.9490 -0.5218 -0.6361
    7PEO   H062 4310   2.211   1.850   1.050 -0.8010 -0.3004  0.5132
    7PEO   O063 4311   2.260   1.807   0.863  0.3055  0.1149 -0.2742
    7PEO   H064 4312   2.454   1.741   0.922 -1.6003 -1.3131 -0.2832
    7PEO   H065 4313   2.444   1.906   0.873 -1.0813  0.5424 -0.7889
    7PEO   C066 4314   2.403   1.806   0.850 -0.0943 -0.0148 -0.2431
    7PEO   C067 4315   2.450   1.770   0.711 -0.0310  0.6208  0.9089
    7PEO   H068 4316   2.387   1.813   0.632 -0.4149 -2.3731 -0.5382
    7PEO   H069 4317   2.557   1.794   0.704 -0.3077  1.3357 -3.2481
    7PEO   O06A 4318   2.445   1.623   0.707  0.4091 -0.3664 -0.3990
    7PEO   H06B 4319   2.500   1.620   0.510 -2.0712  1.3001 -0.8938
    7PEO   H06C 4320   2.337   1.556   0.543  0.7507  1.4377 -2.1348
    7PEO   C06D 4321   2.440   1.562   0.582  0.0084  0.3359  0.1608
    7PEO   C06E 4322   2.496   1.418   0.579  0.8878 -0.7066  0.5171
    7PEO   H06F 4323   2.507   1.394   0.472  0.1353 -0.4108  0.3683
    7PEO   H070 4324   2.599   1.407   0.616  0.6918 -0.9186  0.9930
    7PEO   O071 4325   2.405   1.329   0.632 -0.3182  0.0081  0.2594
    7PEO   H072 4326   2.386   1.130   0.671  0.3716  1.1063  0.6521
    7PEO   H073 4327   2.524   1.182   0.568 -0.1564  2.0079 -0.7538
    7PEO   C074 4328   2.416   1.193   0.585 -0.2792  0.2623 -0.2146
    7PEO   C075 4329   2.337   1.165   0.455 -0.2376 -1.1814 -0.3308
    7PEO   H076 4330   2.324   1.257   0.396  1.8914 -1.4595 -1.3355
    7PEO   H077 4331   2.394   1.092   0.395  3.2216  1.7294 -0.9537
    7PEO   O078 4332   2.210   1.109   0.486  0.0656  0.1159  0.5687
    7PEO   H079 4333   2.207   0.980   0.324 -0.3147 -0.3686 -1.1494
    7PEO   H07A 4334   2.143   1.127   0.284 -1.7539 -2.0485 -0.3739
    7PEO   C07B 4335   2.145   1.058   0.370  0.2379 -0.8895  0.6031
    7PEO   C07C 4336   2.004   1.006   0.398  0.0477  0.1144  0.0678
    7PEO   H07D 4337   1.938   1.084   0.438 -1.9250 -1.6046  0.2979
    7PEO   H07E 4338   1.955   0.955   0.313  0.9986 -0.2124 -0.3004
    7PEO   O07F 4339   2.014   0.905   0.495  0.1112  0.5040 -0.1344
    7PEO   H080 4340   2.050   0.739   0.392  2.5705  1.9435  2.0241
    7PEO   H081 4341   1.874   0.786   0.396  0.9438  0.7009 -2.6254
    7PEO   C082 4342   1.968   0.777   0.454 -0.3945  0.0331 -0.4527
    7PEO   C083 4343   1.945   0.683   0.574 -0.1758  0.1721 -0.2387
    7PEO   H084 4344   1.905   0.584   0.547  0.3330 -0.7109  2.0383
    7PEO   H085 4345   2.041   0.664   0.624  0.3802  2.4660 -0.3195
    7PEO   O086 4346   1.867   0.744   0.667  0.6169  0.2419  0.4035
    7PEO   H087 4347   1.901   0.672   0.856  2.0332 -0.7066 -3.1019
    7PEO   H088 4348   1.825   0.552   0.753 -0.5715 -0.2402  0.8809
    7PEO   C089 4349   1.825   0.660   0.777 -0.1766  0.2884 -1.2232
    7PEO   C08A 4350   1.685   0.691   0.817  0.8349 -0.7949 -0.1919
    7PEO   H08B 4351   1.620   0.660   0.733  1.8446 -0.8266 -0.9814
    7PEO   H08C 4352   1.658   0.633   0.906  0.5038  2.8851  2.3303
    7PEO   O08D 4353   1.656   0.827   0.837 -0.3254 -0.7854  0.3870
    7PEO   H08E 4354   1.848   0.888   0.896  0.7874 -0.7939  1.8859
    7PEO   H08F 4355   1.724   0.837   1.026  1.6274  1.4465  2.0762
    7PEO   C090 4356   1.745   0.893   0.934  0.2353 -0.6260  0.4105
    7PEO   C091 4357   1.712   1.051   0.942  0.1559 -0.5936  0.1429
    7PEO   H092 4358   1.625   1.087   0.998  2.9443  1.6027  3.5495
    7PEO   H093 4359   1.797   1.096   0.996 -0.5196 -0.2211  0.9201
    7PEO   O094 4360   1.701   1.114   0.809 -0.2942  0.0717  0.1547
    7PEO   H095 4361   1.790   1.143   0.615  2.2630  0.5519 -0.6608
    7PEO   H096 4362   1.824   0.984   0.697  0.6063  0.2501 -3.1311
    7PEO   C097 4363   1.806   1.091   0.711 -0.5698 -0.2096 -0.4989
    7PEO   C098 4364   1.936   1.153   0.760  0.7152 -0.9142 -0.0984
    7PEO   H099 4365   1.968   1.136   0.864 -1.2850 -1.5938  0.4521
    7PEO   H09A 4366   2.016   1.106   0.701  1.4160  0.5074 -0.3245
    7PEO   O09B 4367   1.924   1.298   0.734  0.0268  0.3628  0.6244
    7PEO   H09C 4368   2.110   1.323   0.662 -0.4748 -2.7472  0.4595
    7PEO   H09D 4369   2.096   1.342   0.838 -0.3711 -0.4122 -0.2207
    7PEO   C09E 4370   2.046   1.363   0.742 -0.1429 -0.4464 -0.3474
    7PEO   C09F 4371   2.031   1.515   0.743 -0.7627 -0.4951  0.5179
    7PEO   H0A0 4372   1.951   1.540   0.815 -0.1737 -2.7066  2.0817
    7PEO   H0A1 4373   2.124   1.560   0.779 -1.6654  2.3807 -0.5256
    7PEO   O0A2 4374   2.002   1.558   0.614 -0.6285  0.0135 -0.3504
    7PEO   H0A3 4375   2.089   1.743   0.632  0.5097 -0.5740 -1.5845
    7PEO   H0A4 4376   1.914   1.734   0.692 -0.8962 -1.7151 -0.1679
    7PEO   C0A5 4377   1.988   1.700   0.618  0.0894 -0.2126  0.0814
    7PEO   C0A6 4378   1.933   1.738   0.476  0.5789 -0.3081 -0.0431
    7PEO   H0A7 4379   1.961   1.841   0.445  0.0934 -0.9869 -3.0650
    7PEO   H0A8 4380   1.980   1.674   0.400  3.1939 -0.8387  1.8853
    7PEO   O0A9 4381   1.794   1.720   0.470  0.4812 -0.0815  0.2081
    7PEO   H0AA 4382   1.800   1.718   0.265 -1.3914  0.0381 -1.2458
    7PEO   H0AB 4383   1.725   1.869   0.348  1.6209  0.0762  3.7728
    7PEO   C0AC 4384   1.735   1.759   0.345 -0.6028 -0.1985 -0.4656
    7PEO   C0AD 4385   1.609   1.685   0.318  1.2613  0.1279  0.4414
    7PEO   H0AE 4386   1.596   1.685   0.209 -1.9157  2.2203  0.6823
    7PEO   H0AF 4387   1.615   1.580   0.352 -0.3969  0.0100  0.4841
    7PEO   O0B0 4388   1.494   1.740   0.384  0.0922 -0.0353  0.5328
    7PEO   H0B1 4389   1.564   1.774   0.577  1.6591 -1.1811 -0.5804
    7PEO   H0B2 4390   1.506   1.610   0.530 -1.5467  0.7764  0.3061
    7PEO   C0B3 4391   1.487   1.718   0.522 -0.4638  0.9622  0.0230
    7PEO   C0B4 4392   1.345   1.728   0.581 -0.5535 -0.1766  0.5129
    7PEO   H0B5 4393   1.292   1.632   0.568 -0.4957 -0.4755  2.1882
    7PEO   H0B6 4394   1.345   1.746   0.690 -0.2553  0.3460  0.4259
    7PEO   O0B7 4395   1.268   1.837   0.516  0.3199 -0.0569  0.0549
    7PEO   H0B8 4396   1.139   1.847   0.664  1.3745  1.2379 -0.4566
    7PEO   H0B9 4397   1.092   1.746   0.527  0.5546 -0.1824  0.8316
    7PEO   C0BA 4398   1.134   1.844   0.555 -0.2425  0.5271 -0.3904
    7PEO   C0BB 4399   1.057   1.956   0.487  0.3183 -0.4496 -0.8625
    7PEO   H0BC 4400   1.089   1.977   0.383  0.3322  0.4671 -0.6849
    7PEO   H0BD 4401   0.954   1.918   0.482  0.0075  0.3707 -0.8713
    7PEO   O0BE 4402   1.078   2.079   0.561  0.3712 -0.0753 -0.3829
    7PEO   H0BF 4403   1.184   2.185   0.426 -0.1778 -1.7623 -0.8302
    7PEO   H0C0 4404   1.286   2.072   0.524 -1.0998 -0.8361  0.9884
    7PEO   C0C1 4405   1.204   2.145   0.526 -0.1319  0.3290  0.0430
    7PEO   C0C2 4406   1.233   2.267   0.614 -0.1134  0.3755 -0.2638
    7PEO   H0C3 4407   1.247   2.231   0.717 -1.3856 -0.2585 -0.2897
    7PEO   H0C4 4408   1.324   2.312   0.573 -0.2998  1.1477  0.1552
    7PEO   O0C5 4409   1.128   2.361   0.606 -0.8285 -0.5431  0.5025
    7PEO   H0C6 4410   1.223   2.556   0.605 -0.0444 -0.3852  0.0042
    7PEO   H0C7 4411   1.196   2.468   0.765  0.3593  0.4061  0.6831
    7PEO   C0C8 4412   1.158   2.489   0.664  0.4196 -0.4255  0.4831
    7PEO   C0C9 4413   1.030   2.577   0.670  0.5639  0.6187  0.1104
    7PEO   H0CA 4414   1.063   2.680   0.651 -2.2204  0.8656 -5.3950
    7PEO   H0CB 4415   0.967   2.564   0.581  0.7692 -0.7456  0.1374
    7PEO   O0CC 4416   0.967   2.551   0.798 -0.4080 -0.5882 -0.1883
    7PEO   H0CD 4417   1.118   2.558   0.935 -1.2942 -1.3218  1.4258
    7PEO   H0CE 4418   0.975   2.585   1.006  0.6974  1.5523  1.3721
    7PEO   C0CF 4419   1.025   2.613   0.912 -0.0202  0.5933  0.6736
    7PEO   C0D0 4420   1.056   2.759   0.898  0.2398  1.2982 -0.7146
    7PEO   H0D1 4421   0.973   2.811   0.849  0.7296  2.5928 -0.2205
    7PEO   H0D2 4422   1.063   2.797   1.001  0.5922 -1.9312  0.5701
    7PEO   O0D3 4423   1.190   2.788   0.841 -0.0178  0.3198  0.1934
    7PEO   H0D4 4424   1.294   2.646   0.947  0.0366 -0.5530 -1.0474
    7PEO   H0D5 4425   1.301   2.814   1.023  1.7738  1.2618 -0.4208
    7PEO   C0D6 4426   1.296   2.755   0.931  0.5857 -0.2879  0.5834
    7PEO   C0D7 4427   1.428   2.776   0.854 -0.3993 -0.0016  0.0517
    7PEO   H0D8 4428   1.413   2.871   0.801 -0.2941 -0.2972 -0.5115
    7PEO   H0D9 4429   1.512   2.787   0.924 -0.2745  2.0339 -0.3602
    7PEO   O0DA 4430   1.459   2.674   0.756  0.2605 -0.4055 -0.1461
    7PEO   H0DB 4431   1.636   2.765   0.712  2.6813 -4.0396  0.6710
    7PEO   H0DC 4432   1.518   2.759   0.582  0.6139  0.5467  0.0214
    7PEO   C0DD 4433   1.561   2.700   0.664  0.1030 -0.5273 -0.4633
    7PEO   C0DE 4434   1.626   2.563   0.616 -0.4891 -0.3730 -0.4684
    7PEO   H0DF 4435   1.550   2.488   0.590  0.0048 -0.8904 -0.4361
    7PEO   H0E0 4436   1.669   2.590   0.518 -1.2784 -1.4356 -1.1356
    7PEO   O0E1 4437   1.718   2.532   0.712  0.0719 -0.4302 -0.0653
    7PEO   H0E2 4438   1.735   2.338   0.650 -2.1188  0.6102  1.4082
    7PEO   H0E3 4439   1.848   2.391   0.777 -1.1362  2.5023  1.0984
    7PEO   C0E4 4440   1.807   2.416   0.678 -0.7917 -0.1284  0.2178
    7PEO   C0E5 4441   1.929   2.433   0.581 -0.2483 -0.4579 -0.7903
    7PEO   H0E6 4442   1.980   2.527   0.605  1.3330 -1.5642  0.3522
    7PEO   H0E7 4443   1.988   2.344   0.609 -0.7741  0.2577  3.1535
    7PEO   O0E8 4444   1.873   2.436   0.449 -0.3952 -0.3555  0.5524
    7PEO   H0E9 4445   1.997   2.344   0.301 -0.8643  1.0180 -3.9131
    7PEO   H0EA 4446   2.052   2.493   0.379  0.9580 -0.0675 -1.4514
    7PEO   C0EB 4447   1.963   2.443   0.336  0.1251  0.1285 -0.0156
    7PEO   C0EC 4448   1.914   2.533   0.220 -0.2547 -0.6280  0.6311
    7PEO   H0ED 4449   1.881   2.627   0.266 -1.9961 -1.8741  2.0997
    7PEO   H0EE 4450   1.993   2.556   0.148  0.0491  1.5677  1.6025
    7PEO   O0EF 4451   1.796   2.473   0.158 -0.3142  0.2913 -0.1174
    7PEO   H0F0 4452   1.658   2.497   0.014  0.3929 -0.8754 -0.1890
    7PEO   H0F1 4453   1.785   2.626   0.022  2.7407 -1.7607  1.4005
    7PEO   C0F2 4454   1.718   2.561   0.080  0.1398 -0.6526 -0.1721
    7PEO   C0F3 4455   1.629   2.653   0.172  0.1785  0.2747 -1.3757
    7PEO   H0F4 4456   1.682   2.713   0.248 -1.9703  0.0694  0.3667
    7PEO   H0F5 4457   1.557   2.714   0.116 -1.3589 -0.1395  0.0680
    7PEO   O0F6 4458   1.545   2.570   0.259 -0.6475 -0.4957  0.1004
    7PEO   H0F7 4459   1.512   2.395   0.153 -0.6446 -0.0805  1.0113
    7PEO   H0F8 4460   1.407   2.530   0.100 -0.8047 -0.4222  0.5478
    7PEO   C0F9 4461   1.457   2.484   0.186 -0.3458  0.2423  0.6457
    7PEO   C0FA 4462   1.344   2.435   0.284 -0.0239 -0.2702  0.3463
    7PEO   H0FB 4463   1.333   2.326   0.296 -0.4673 -0.2132  0.4547
    7PEO   H0FC 4464   1.382   2.453   0.386 -0.7120 -2.0706  0.9652
    7PEO   O0FD 4465   1.215   2.500   0.249  0.2002  0.3792  0.2493
    7PEO   H0FE 4466   1.237   2.665   0.369  0.0895 -0.2811  0.3295
    7PEO   H0FF 4467   1.118   2.547   0.408  0.9428  1.3021  1.7594
    7PEO   C100 4468   1.158   2.603   0.323 -0.0798 -0.0627  0.3232
    7PEO   C101 4469   1.044   2.681   0.248  0.1449 -0.7456 -0.2470
    7PEO   H102 4470   0.970   2.605   0.221  0.5454 -1.4179  0.5232
    7PEO   H103 4471   1.006   2.750   0.326 -1.5210 -1.7912 -0.0830
    7PEO   O104 4472   1.085   2.759   0.128 -0.0831  0.0357  0.0890
    7PEO   H105 4473   1.067   2.583  -0.002  0.8647  0.6658 -0.6312
    7PEO   H106 4474   1.231   2.635   0.039  0.6985  2.9831  0.9221
    7PEO   C107 4475   1.128   2.671   0.022  0.1784  1.0483 -0.2380
    7PEO   C108 4476   1.125   2.761  -0.111  0.2068  0.1920  0.5450
    7PEO   H109 4477   1.189   2.712  -0.186  0.8845  1.7195  0.0946
    7PEO   H10A 4478   1.022   2.782  -0.142  0.5192 -0.1629 -0.8322
    7PEO   O10B 4479   1.197   2.884  -0.088  0.3322  0.0784  0.1851
    7PEO   H10C 4480   1.338   2.810   0.046  0.9008 -0.5699 -0.6321
    7PEO   H10D 4481   1.357   2.976  -0.001 -2.3300  0.7928  0.3321
    7PEO   C10E 4482   1.330   2.877  -0.040 -0.1136  0.2359  0.0628
    7PEO   C10F 4483   1.428   2.839  -0.148  0.0111  0.3617  0.0519
    7PEO   H110 4484   1.397   2.889  -0.241  1.2940  1.0429 -0.0316
    7PEO   H111 4485   1.527   2.881  -0.123 -0.7898  0.4729  3.6585
    7PEO   O112 4486   1.425   2.699  -0.174  0.3912 -0.5550  0.0901
    7PEO   H113 4487   1.640   2.673  -0.225  1.0835  1.3894 -2.1416
    7PEO   H114 4488   1.528   2.675  -0.362 -1.7446 -1.0340 -0.2771
    7PEO   C115 4489   1.538   2.646  -0.256  0.5896  0.5475  0.0107
    7PEO   C116 4490   1.514   2.495  -0.265  0.1512 -0.2230  0.1214
    7PEO   H117 4491   1.606   2.443  -0.297 -0.8244 -1.2178 -1.1787
    7PEO   H118 4492   1.481   2.442  -0.174  1.1010 -0.7165  0.1925
    7PEO   O119 4493   1.415   2.480  -0.368  0.1302  0.0937  0.0626
    7PEO   H11A 4494   1.356   2.294  -0.301  0.7134  0.3966  0.2614
    7PEO   H11B 4495   1.468   2.296  -0.439 -1.3048 -0.0813 -2.2962
    7PEO   C11C 4496   1.382   2.348  -0.393  0.2898  0.5342  0.2209
    7PEO   C11D 4497   1.272   2.331  -0.491 -0.6451  0.4534  0.1454
    7PEO   H11E 4498   1.286   2.411  -0.565  2.8546 -1.2796 -1.2916
    7PEO   H11F 4499   1.283   2.229  -0.531  0.4353  0.5062  0.2752
    7PEO   O120 4500   1.143   2.342  -0.423  0.5210 -0.0302  0.2343
    7PEO   H121 4501   1.101   2.548  -0.444 -2.4425 -0.7637  0.3502
    7PEO   H122 4502   1.181   2.503  -0.292 -2.2515 -0.7287  2.6768
    7PEO   C123 4503   1.110   2.469  -0.369 -0.5894 -0.1550  0.8113
    7PEO   C124 4504   0.978   2.465  -0.289 -0.1826  0.7964 -0.1664
    7PEO   H125 4505   0.962   2.368  -0.240  1.7209  0.4834 -0.0741
    7PEO   H126 4506   0.990   2.543  -0.212 -2.1983 -0.8694  2.0038
    7PEO   O127 4507   0.864   2.489  -0.366  0.1203  0.3585  0.7869
    7PEO   H128 4508   0.924   2.631  -0.497  0.2417 -1.4873 -0.8569
    7PEO   H129 4509   0.846   2.693  -0.341 -0.8278 -0.3972  0.1592
    7PEO   C12A 4510   0.844   2.618  -0.422  0.5465 -0.0203 -0.2434
    7PEO   C12B 4511   0.713   2.616  -0.502 -0.5567 -0.6533 -0.0785
    7PEO   H12C 4512   0.678   2.718  -0.524  0.2410 -0.5526 -0.9475
    7PEO   H12D 4513   0.727   2.545  -0.584  0.5151 -1.4900  0.7902
    7PEO   O12E 4514   0.610   2.557  -0.417  0.4340 -0.0763  0.1892
    7PEO   H12F 4515   0.503   2.537  -0.589  2.4737  3.5083  0.5304
    7PEO   H130 4516   0.410   2.484  -0.447  0.8557  1.5222  0.7344
    7PEO   C131 4517   0.510   2.483  -0.493  0.1216  0.1828 -0.9466
    7PEO   C132 4518   0.551   2.341  -0.526  0.1461 -0.3865 -0.1740
    7PEO   H133 4519   0.501   2.316  -0.621  1.6698 -0.9934 -0.8469
    7PEO   H134 4520   0.658   2.343  -0.549  0.2842  3.9714  0.0918
    7PEO   O135 4521   0.510   2.243  -0.425  0.4123  1.0839  1.1294
    7PEO   H136 4522   0.570   2.332  -0.259  0.2736  0.3852 -1.8372
    7PEO   H137 4523   0.686   2.213  -0.336 -0.5543  0.5667 -2.0911
    7PEO   C138 4524   0.582   2.232  -0.305 -0.2125 -0.4781 -0.1687
    7PEO   C139 4525   0.526   2.130  -0.215 -0.0423  0.3132 -0.4743
    7PEO   H13A 4526   0.565   2.154  -0.115  3.1057  1.6689 -1.9046
    7PEO   H13B 4527   0.418   2.148  -0.226 -0.2220 -0.0737  0.5451
    7PEO   O13C 4528   0.562   2.000  -0.267  0.4949 -0.4192 -0.0001
    7PEO   H13D 4529   0.386   1.936  -0.181  0.4756  0.6924  1.3205
    7PEO   H13E 4530   0.541   1.902  -0.094 -0.6922  3.1160  0.4429
    7PEO   C13F 4531   0.491   1.903  -0.191 -0.0785 -0.7846 -0.0827
    7PEO   C140 4532   0.509   1.772  -0.272 -0.2514 -0.2739 -0.5692
    7PEO   H141 4533   0.423   1.707  -0.251 -2.9919  2.6398 -2.0346
    7PEO   H142 4534   0.489   1.789  -0.379 -3.0156  1.3791  0.1255
    7PEO   O143 4535   0.636   1.708  -0.237 -0.4783 -0.3531  0.2385
    7PEO   H144 4536   0.569   1.525  -0.162 -0.9551 -0.4642 -0.9647
    7PEO   H145 4537   0.740   1.535  -0.195 -0.3882 -0.4177  1.8259
    7PEO   C146 4538   0.642   1.565  -0.234  0.2491 -0.0306  0.4326
    7PEO   C147 4539   0.619   1.498  -0.377 -1.1535  0.1119  0.5769
    7PEO   H148 4540   0.660   1.395  -0.381 -0.1529  0.5309 -1.9269
    7PEO   H149 4541   0.509   1.494  -0.376 -1.1702  0.1309  2.5465
    7PEO   O14A 4542   0.677   1.581  -0.488  0.5369 -0.0065  0.0143
    7PEO   H14B 4543   0.496   1.543  -0.585  0.3189  3.7537  1.3093
    7PEO   H14C 4544   0.638   1.455  -0.650  0.4074  0.5912 -1.4132
    7PEO   C14D 4545   0.603   1.551  -0.608  0.4261  0.0276 -0.0749
    7PEO   C14E 4546   0.633   1.655  -0.716  0.5572 -0.0887 -0.1527
    7PEO   H14F 4547   0.736   1.635  -0.750  1.2115 -0.0013  1.6670
    7PEO   H150 4548   0.562   1.636  -0.797 -0.4530  1.7755  0.2536
    7PEO   O151 4549   0.611   1.791  -0.679 -0.6350 -0.4367 -0.0501
    7PEO   H152 4550   0.601   1.871  -0.865 -1.6758 -1.4911  1.0495
    7PEO   H153 4551   0.767   1.865  -0.797 -0.9143 -0.0599 -2.3139
    7PEO   C154 4552   0.662   1.889  -0.775 -0.5774 -0.5494  0.1426
    7PEO   C155 4553   0.636   2.036  -0.726 -0.2957 -0.1855  0.5723
    7PEO   H156 4554   0.646   2.039  -0.617 -2.0310 -0.7962  0.7863
    7PEO   H157 4555   0.699   2.113  -0.773 -0.0187  0.5448  2.0783
    7PEO   O158 4556   0.502   2.079  -0.773 -0.5965  0.2116 -0.6283
    7PEO   H159 4557   0.437   2.018  -0.586 -1.8215  1.7000  0.3130
    7PEO   H15A 4558   0.380   1.914  -0.708 -0.1879  0.0591 -1.5307
    7PEO   C15B 4559   0.400   2.021  -0.689 -0.2566 -0.1260 -0.3535
    7PEO   C15C 4560   0.266   2.094  -0.703 -0.3137  0.0942 -0.2611
    7PEO   H15D 4561   0.222   2.096  -0.602  0.9148  0.7147  0.2690
    7PEO   H15E 4562   0.278   2.197  -0.739  1.2131 -0.8794 -2.7833
    7PEO   O15F 4563   0.185   2.009  -0.788  0.0434 -0.2985  0.2432
    7PEO   H160 4564   0.065   2.168  -0.801  1.8030  1.0867  0.2580
    7PEO   H161 4565   0.008   2.029  -0.909 -0.0424  0.0099 -0.9628
    7PEO   C162 4566   0.093   2.083  -0.865 -0.7285  0.7017 -0.4461
    7PEO   C163 4567   0.164   2.159  -0.982 -0.3201 -0.4854 -0.1684
    7PEO   H164 4568   0.087   2.227  -1.020  2.1672  2.0467 -1.0680
    7PEO   H165 4569   0.250   2.219  -0.948 -0.1189 -1.0941  0.4158
    7PEO   O166 4570   0.196   2.067  -1.090  0.3281 -0.2588 -0.6219
    7PEO   H167 4571   0.183   2.200  -1.252 -0.3674  0.4364  1.4892
    7PEO   H168 4572   0.228   2.039  -1.303  1.1896 -1.1649  0.7808
    7PEO   C169 4573   0.241   2.112  -1.222 -0.8644 -0.2916  0.3838
    7PEO   C16A 4574   0.395   2.132  -1.203 -0.2247 -0.2459 -0.2429
    7PEO   H16B 4575   0.423   2.061  -1.124 -0.5833  0.4936  0.5745
    7PEO   H16C 4576   0.464   2.116  -1.287  1.6043 -1.8260  1.4343
    7PEO   O16D 4577   0.424   2.261  -1.149  0.1459 -0.6180 -0.1043
    7PEO   H16E 4578   0.618   2.238  -1.182 -0.5238  0.2701  0.2367
    7PEO   H16F 4579   0.570   2.208  -1.024 -1.8304 -2.2215 -1.3526
    7PEO   C170 4580   0.554   2.281  -1.104 -0.7216 -0.0933  0.2757
    7PEO   C171 4581   0.595   2.438  -1.101  0.7676  0.0718 -0.3879
    7PEO   H172 4582   0.535   2.490  -1.025  0.6487  0.1633 -0.5418
    7PEO   H173 4583   0.702   2.444  -1.078  0.8469  0.1659 -0.7777
    7PEO   O174 4584   0.557   2.507  -1.236 -0.4093  0.0819  0.1053
    7PEO   H175 4585   0.732   2.618  -1.219  0.1317  0.9389  0.1466
    7PEO   H176 4586   0.579   2.701  -1.175 -1.7521  0.6089 -1.0696
    7PEO   C177 4587   0.625   2.628  -1.243  0.1312  0.6931  0.0487
    7PEO   C178 4588   0.620   2.685  -1.385 -0.5014 -1.0277 -0.9188
    7PEO   H179 4589   0.680   2.777  -1.371  0.3645 -1.2609 -2.7575
    7PEO   H17A 4590   0.671   2.619  -1.457  2.2015  0.1840 -0.2434
    7PEO   O17B 4591   0.487   2.716  -1.413 -0.4132  0.0270  0.6774
    7PEO   H17C 4592   0.483   2.652  -1.600 -1.6252  0.7566  0.6497
    7PEO   H17D 4593   0.568   2.809  -1.571  1.1020 -0.0563  0.9758
    7PEO   C17E 4594   0.480   2.748  -1.546 -0.2397  1.3106 -0.2065
    7PEO   C17F 4595   0.358   2.821  -1.585  0.4008 -0.5785 -0.3493
    7PEO   H180 4596   0.332   2.869  -1.490  1.3916 -0.6468 -0.0421
    7PEO   H181 4597   0.386   2.890  -1.666 -0.1564 -0.1883 -0.2160
    7PEO   O182 4598   0.268   2.720  -1.635  0.3092 -0.3135 -0.0652
    7PEO   H183 4599   0.097   2.706  -1.738  0.3155 -2.4126  2.0450
    7PEO   H184 4600   0.148   2.868  -1.728  1.3392  0.5376  1.0134
    7PEO   C185 4601   0.143   2.777  -1.667 -1.0972  0.2247  0.4499
    7PEO   C186 4602   0.053   2.787  -1.544 -0.2736  0.0253  0.4497
    7PEO   H187 4603  -0.053   2.765  -1.563 -0.6380 -0.7842  3.0160
    7PEO   H188 4604   0.085   2.706  -1.476  2.0054 -0.5829 -1.2313
    7PEO   O189 4605   0.075   2.911  -1.477  0.1010  0.3564  0.3068
    7PEO   H18A 4606  -0.104   2.913  -1.352 -0.0835  0.1939  1.9946
    7PEO   H18B 4607  -0.003   3.052  -1.335 -1.1234  0.4063 -1.9004
    7PEO   C18C 4608   0.002   2.944  -1.356 -0.0001 -0.1715  0.9159
    7PEO   C18D 4609   0.074   2.870  -1.243  0.3884 -0.8027 -0.4001
    7PEO   H18E 4610   0.183   2.879  -1.257  0.8529 -2.1456  1.9742
    7PEO   H18F 4611   0.057   2.931  -1.153  0.4184  0.3630 -1.1633
    7PEO   O190 4612   0.019   2.733  -1.220 -0.2625 -0.4649  0.1238
    7PEO   H191 4613   0.091   2.655  -1.040  0.7294 -1.2154  0.3918
    7PEO   H192 4614   0.212   2.674  -1.168 -0.5548  3.6263  0.5512
    7PEO   C193 4615   0.107   2.646  -1.148  0.2239 -0.0258  0.2120
    7PEO   C194 4616   0.081   2.498  -1.184  0.9008  0.1659 -0.6170
    7PEO   H195 4617   0.137   2.436  -1.112 -1.5094  0.2855  1.4780
    7PEO   H196 4618  -0.024   2.469  -1.173  1.2016 -0.7185  0.0719
    7PEO   O197 4619   0.115   2.474  -1.317 -0.0287 -0.2134  0.3415
    7PEO   H198 4620   0.299   2.390  -1.299 -2.3138 -1.2669 -0.7982
    7PEO   H199 4621   0.291   2.575  -1.343  0.5527 -0.4850  0.1604
    7PEO   C19A 4622   0.253   2.473  -1.354 -0.4948 -0.0337 -0.5748
    7PEO   C19B 4623   0.241   2.448  -1.501 -0.4462 -0.3749  0.0793
    7PEO   H19C 4624   0.155   2.503  -1.543 -0.9508 -2.7856 -2.3082
    7PEO   H19D 4625   0.340   2.475  -1.541 -1.4314 -2.0312 -3.9554
    7PEO   O19E 4626   0.237   2.308  -1.535 -0.3371 -0.2432 -0.2160
    7PEO   H19F 4627   0.284   2.165  -1.667  2.2161  0.6396  0.4302
    7PEO   H1A0 4628   0.311   2.338  -1.718 -0.4674 -0.0182 -0.2278
    7PEO   C1A1 4629   0.244   2.268  -1.667 -0.2361 -0.2381 -0.2240
    7PEO   C1A2 4630   0.098   2.255  -1.722  0.2093  0.6919  0.0282
    7PEO   H1A3 4631   0.035   2.345  -1.722 -1.2575 -0.3103  0.0417
    7PEO   H1A4 4632   0.111   2.220  -1.826 -1.6146  0.3301 -0.1142
    7PEO   O1A5 4633   0.038   2.137  -1.652 -0.2680 -0.1524  0.2364
    7PEO   H1A6 4634  -0.015   2.222  -1.481 -2.1038 -0.5758 -0.3499
    7PEO   H1A7 4635   0.088   2.080  -1.454 -1.7764 -3.1729 -0.7516
    7PEO   C1A8 4636   0.007   2.121  -1.517 -0.6710 -0.2562 -0.4160
    7PEO   C1A9 4637  -0.120   2.046  -1.501  0.2411  0.2257  0.4701
    7PEO   H1AA 4638  -0.183   2.109  -1.436  1.7949  1.6882  0.6315
    7PEO   H1AB 4639  -0.178   2.041  -1.595 -1.4044 -2.3477  1.5093
    7PEO   O1AC 4640  -0.111   1.920  -1.443 -0.0290  0.4633  0.3084
    7PEO   H1AD 4641  -0.309   1.901  -1.497  1.7507  0.6971 -2.0216
    7PEO   H1AE 4642  -0.261   1.901  -1.323  0.2192  0.0345  1.4501
    7PEO   C1AF 4643  -0.238   1.861  -1.423 -0.6228  1.2413  0.7436
    7PEO   C1B0 4644  -0.206   1.704  -1.421 -0.1226  0.2776  0.5359
    7PEO   H1B1 4645  -0.162   1.674  -1.325  0.2475  0.2145  0.3482
    7PEO   H1B2 4646  -0.304   1.654  -1.427 -1.2538  2.5055 -1.1241
    7PEO   O1B3 4647  -0.124   1.666  -1.544  0.5806  0.0795  0.1885
    7PEO   H1B4 4648  -0.078   1.490  -1.457 -0.9487  1.7143  0.5145
    7PEO   H1B5 4649   0.000   1.526  -1.631 -0.3558 -1.0165 -0.7149
    7PEO   C1B6 4650  -0.085   1.527  -1.561 -0.0688 -0.4377 -0.3699
    7PEO   C1B7 4651  -0.196   1.456  -1.645  0.1416 -0.2932 -0.2480
    7PEO   H1B8 4652  -0.200   1.509  -1.741  0.7960  1.6757  0.7553
    7PEO   H1B9 4653  -0.165   1.351  -1.656 -0.8523 -0.7432  0.9422
    7PEO   O1BA 4654  -0.327   1.460  -1.580  0.2888  0.3738  0.2419
    7PEO   H1BB 4655  -0.387   1.304  -1.711  1.7266  0.4735  0.2351
    7PEO   H1BC 4656  -0.425   1.460  -1.771 -0.2483 -0.2753 -1.1109
    7PEO   C1BD 4657  -0.418   1.403  -1.677 -0.1188  0.2910 -0.7751
    7PEO   C1BE 4658  -0.559   1.395  -1.617 -0.7849  0.3874  0.6626
    7PEO   H1BF 4659  -0.580   1.483  -1.555 -0.9930 -1.2871  3.1244
    7PEO   H1C0 4660  -0.645   1.397  -1.685 -2.1051  1.9615  2.2734
    7PEO   O1C1 4661  -0.574   1.273  -1.537  0.0315  0.4895  0.3674
    7PEO   H1C2 4662  -0.770   1.311  -1.519 -1.2376 -0.7804  1.2897
    7PEO   H1C3 4663  -0.680   1.358  -1.371 -0.9086 -0.3537  1.1243
    7PEO   C1C4 4664  -0.687   1.283  -1.452 -0.0166  0.3773  0.3390
    7PEO   C1C5 4665  -0.725   1.149  -1.379  0.2127  0.4342  0.7505
    7PEO   H1C6 4666  -0.637   1.121  -1.319  0.1007  1.9966  1.7376
    7PEO   H1C7 4667  -0.815   1.159  -1.316  0.6995 -0.3777  1.6113
    7PEO   O1C8 4668  -0.743   1.057  -1.489 -0.0018 -0.6388 -0.0012
    7PEO   H1C9 4669  -0.902   0.963  -1.396 -1.2030 -0.2747 -1.0660
    7PEO   H1CA 4670  -0.735   0.882  -1.391 -0.1385  0.4226 -0.1701
    7PEO   C1CB 4671  -0.810   0.937  -1.450 -0.1752  0.7174  0.1508
    7PEO   C1CC 4672  -0.836   0.859  -1.576  0.0830 -0.1868  0.4954
    7PEO   H1CD 4673  -0.907   0.778  -1.552  0.3386 -0.0987  1.5858
    7PEO   H1CE 4674  -0.886   0.919  -1.654  0.4965  0.6193  0.8479
    7PEO   O1CF 4675  -0.723   0.795  -1.637  0.4724  0.3848 -0.2376
    7PEO   H1D0 4676  -0.657   0.623  -1.742 -1.1404 -1.7888  0.2952
    7PEO   H1D1 4677  -0.827   0.657  -1.747  1.5518 -1.3357 -3.3049
    7PEO   C1D2 4678  -0.741   0.654  -1.678 -0.7462  0.1802 -0.0883
    7PEO   C1D3 4679  -0.769   0.551  -1.564  0.3174  0.3519  0.4118
    7PEO   H1D4 4680  -0.855   0.579  -1.502 -1.9775 -1.0975 -1.9105
    7PEO   H1D5 4681  -0.789   0.454  -1.613 -1.4302  1.0311 -0.2965
    7PEO   O1D6 4682  -0.651   0.545  -1.498  0.3890  0.1742  0.1610
    7PEO   H1D7 4683  -0.656   0.338  -1.430  4.3819 -1.0427  0.9862
    7PEO   H1D8 4684  -0.711   0.456  -1.322  0.7907 -2.4994  1.1057
    7PEO   C1D9 4685  -0.638   0.443  -1.403 -0.7315  0.7164 -0.9893
    7PEO   C1DA 4686  -0.496   0.455  -1.338 -0.2235 -0.2694  1.0201
    7PEO   H1DB 4687  -0.456   0.362  -1.296  1.3127  0.6232  1.6087
    7PEO   H1DC 4688  -0.425   0.495  -1.412 -0.9693 -1.9448 -0.6757
    7PEO   O1DD 4689  -0.501   0.546  -1.228 -0.0356 -0.2715 -0.3620
    7PEO   H1DE 4690  -0.317   0.500  -1.113  1.2829  2.1359  1.1341
    7PEO   H1DF 4691  -0.394   0.649  -1.082 -0.3687 -0.2700  0.3787
    7PEO   C1E0 4692  -0.371   0.580  -1.165 -0.5977  0.1981 -0.0764
    7PEO   C1E1 4693  -0.270   0.646  -1.265 -0.3065 -0.2808 -0.2896
    7PEO   H1E2 4694  -0.167   0.644  -1.226  0.3202 -0.0893 -1.8756
    7PEO   H1E3 4695  -0.266   0.587  -1.357 -1.4178 -0.4126 -0.2704
    7PEO   O1E4 4696  -0.299   0.781  -1.304 -0.2323 -0.9407  0.4666
    7PEO   H1E5 4697  -0.505   0.803  -1.318 -1.3050 -0.2545 -3.4404
    7PEO   H1E6 4698  -0.411   0.723  -1.457  1.9850  0.4936 -0.7794
    7PEO   C1E7 4699  -0.416   0.804  -1.383  0.8354  0.3555 -0.6963
    7PEO   C1E8 4700  -0.412   0.945  -1.442 -0.1564  0.2326  0.1952
    7PEO   H1E9 4701  -0.502   0.951  -1.505  0.3489 -1.5820 -0.7637
    7PEO   H1EA 4702  -0.388   1.026  -1.372 -2.1676  1.5118 -0.4838
    7PEO   O1EB 4703  -0.301   0.938  -1.532  0.0920 -0.3336  0.2083
    7PEO   H1EC 4704  -0.336   1.145  -1.573 -1.8264 -0.0657 -0.9427
    7PEO   H1ED 4705  -0.367   1.017  -1.694  0.2126 -2.7800  0.9079
    7PEO   C1EE 4706  -0.297   1.051  -1.617  0.3393  0.5762 -0.5114
    7PEO   C1EF 4707  -0.150   1.062  -1.673  0.2398 -0.5609 -0.2345
    7PEO   H1F0 4708  -0.129   0.966  -1.723  1.7963  0.3517 -1.4198
    7PEO   H1F1 4709  -0.149   1.141  -1.749 -1.4409 -0.2405  0.0331
    7PEO   O1F2 4710  -0.066   1.102  -1.557 -0.0646  0.3731  0.3477
    7PEO   H1F3 4711   0.074   1.228  -1.645  0.3040 -0.0478  0.7090
    7PEO   H1F4 4712   0.121   1.052  -1.650 -1.1792 -0.2971 -0.2495
    7PEO   C1F5 4713   0.074   1.132  -1.591 -0.7013 -0.3495  0.2047
    7PEO   C1F6 4714   0.139   1.167  -1.455  0.1712  0.5374  0.8189
    7PEO   H1F7 4715   0.086   1.115  -1.374  0.1722 -1.2423 -0.2736
    7PEO   H1F8 4716   0.244   1.135  -1.451  0.0648  0.1667  0.7252
    7PEO   O1F9 4717   0.125   1.306  -1.424  0.2708  0.0562  0.3655
    7PEO   H1FA 4718   0.306   1.331  -1.304  0.0317  0.4947  0.3940
    7PEO   H1FB 4719   0.172   1.287  -1.222  1.0402  0.1276 -0.0199
    7PEO   C1FC 4720   0.198   1.351  -1.308  0.0184  0.3220 -0.1989
    7PEO   C1FD 4721   0.174   1.493  -1.264  0.4413  0.7440  0.4029
    7PEO   H1FE 4722   0.069   1.506  -1.234  0.4425  2.4598 -0.1805
    7PEO   H1FF 4723   0.247   1.507  -1.182 -0.3729  1.0966  1.0850
    7PEO   O200 4724   0.202   1.573  -1.375  0.2584 -0.9653 -0.1842
    7PEO   H201 4725   0.233   1.752  -1.264  0.0170 -0.9305  0.5305
    7PEO   H202 4726   0.071   1.735  -1.322  0.4817  0.0832  1.8556
    7PEO   C203 4727   0.175   1.711  -1.348 -0.0096 -0.5515  0.3623
    7PEO   C204 4728   0.222   1.783  -1.480  0.2521  0.3721  0.1897
    7PEO   H205 4729   0.181   1.738  -1.572 -2.3014  0.6815  1.0902
    7PEO   H206 4730   0.168   1.879  -1.475 -2.5894 -1.0645 -0.6029
    7PEO   O207 4731   0.363   1.793  -1.465 -0.1958 -0.0327 -0.5729
    7PEO   H208 4732   0.440   1.979  -1.521 -3.6889  1.9059 -1.3030
    7PEO   H209 4733   0.361   1.887  -1.650  1.7287 -2.2330 -0.7848
    7PEO   C20A 4734   0.424   1.878  -1.560  0.6599  0.3298  0.3339
    7PEO   C20B 4735   0.557   1.822  -1.608  0.0392  0.1246 -0.1529
    7PEO   H20C 4736   0.547   1.713  -1.596 -2.4743  0.2496 -0.4711
    7PEO   H20D 4737   0.563   1.858  -1.711 -1.2213 -0.2580 -0.3818
    7PEO   O20E 4738   0.655   1.873  -1.525 -0.3390 -0.7572  0.0733
    7PEO   H20F 4739   0.812   1.847  -1.659 -1.3041 -1.3084  0.1776
    7PEO   H210 4740   0.783   1.714  -1.545 -3.0228  0.8542  1.0275
    7PEO   C211 4741   0.785   1.824  -1.555  0.1809  0.9063  1.1298
    7PEO   C212 4742   0.898   1.880  -1.461  0.3996  0.6840 -0.5693
    7PEO   H213 4743   0.992   1.851  -1.509  1.0446  1.8868 -0.0964
    7PEO   H214 4744   0.892   1.990  -1.455  1.0883  0.7282 -0.6070
    7PEO   O215 4745   0.909   1.822  -1.333  0.0729  0.4719 -0.7982
    7PEO   H216 4746   0.722   1.890  -1.231  0.6794  0.3797 -0.6868
    7PEO   H217 4747   0.861   2.004  -1.236  2.5518 -0.8569 -0.4441
    7PEO   C218 4748   0.832   1.898  -1.233  0.7487 -0.3966 -0.4103
    7PEO   C219 4749   0.872   1.862  -1.088 -0.4278  0.2938  0.2184
    7PEO   H21A 4750   0.838   1.941  -1.019 -2.1609  1.4802 -1.8772
    7PEO   H21B 4751   0.827   1.763  -1.072 -0.8972  0.5901  0.7921
    7PEO   O21C 4752   1.018   1.860  -1.092 -0.1925  0.2537 -0.2514
    7PEO   H21D 4753   1.183   1.838  -0.964  1.7665  3.2556  1.1908
    7PEO   H21E 4754   1.030   1.818  -0.881  0.8102  0.0525 -0.0581
    7PEO   C21F 4755   1.080   1.877  -0.959  0.2030 -0.2343 -0.6727
    7PEO   C220 4756   1.083   2.028  -0.910  0.3196 -0.2373 -0.2956
    7PEO   H221 4757   1.179   2.032  -0.856  0.9528 -2.6180 -1.1193
    7PEO   H222 4758   1.079   2.099  -0.993 -2.2237  0.8765  0.6652
    7PEO   O223 4759   0.975   2.056  -0.824 -0.4970 -0.1052 -0.5079
    7PEO   H224 4760   1.098   2.191  -0.727 -0.5705  2.2387  0.5155
    7PEO   H225 4761   0.936   2.148  -0.652 -2.7908 -1.3578 -2.0103
    7PEO   C226 4762   0.990   2.176  -0.743 -0.2186  0.1665 -0.1502
    7PEO   C227 4763   0.934   2.302  -0.813 -0.6577  0.2354  0.0585
    7PEO   H228 4764   0.846   2.272  -0.873 -0.5098 -0.0122 -0.0368
    7PEO   H229 4765   0.900   2.378  -0.741  2.6383  2.8908 -0.9277
    7PEO   O22A 4766   1.037   2.351  -0.902 -0.0566  0.4662 -0.1607
    7PEO   H22B 4767   0.910   2.394  -1.067  1.8525 -0.4666 -3.4858
    7PEO   H22C 4768   1.080   2.452  -1.079  2.6323  5.0167  3.0762
    7PEO   C22D 4769   0.995   2.436  -1.011  0.0734 -0.3316 -0.6886
    7PEO   C22E 4770   0.979   2.580  -0.965  0.1866 -0.5807 -0.5314
    7PEO   H22F 4771   1.067   2.604  -0.904  1.6827 -1.3108 -2.3095
    7PEO   H230 4772   0.981   2.638  -1.058  0.1298 -2.2311 -1.6039
    7PEO   O231 4773   0.860   2.613  -0.899  0.6103  0.9522 -0.9924
    7PEO   H232 4774   0.859   2.807  -0.955 -0.4062 -1.1089 -1.7247
    7PEO   H233 4775   0.913   2.782  -0.788  2.3649 -2.1527 -1.0188
    7PEO   C234 4776   0.837   2.752  -0.862  0.2982  0.8980 -0.3187
    7PEO   C235 4777   0.689   2.778  -0.812  0.0341  0.8461 -0.7774
    7PEO   H236 4778   0.635   2.696  -0.762  1.3730  0.1427 -0.4565
    7PEO   H237 4779   0.687   2.862  -0.741 -0.4948 -0.8838  1.3958
    7PEO   O238 4780   0.601   2.805  -0.927 -0.0690 -0.6615  0.7749
    7PEO   H239 4781   0.471   2.935  -0.833 -0.3275  1.2799 -2.0592
    7PEO   H23A 4782   0.408   2.768  -0.861  0.7785  0.1044 -0.6452
    7PEO   C23B 4783   0.468   2.850  -0.903  0.1197  0.3925 -1.0345
    7PEO   C23C 4784   0.406   2.888  -1.035 -0.0988 -0.4405  0.0811
    7PEO   H23D 4785   0.417   2.792  -1.089  2.8356  0.2561 -0.7565
    7PEO   H23E 4786   0.300   2.915  -1.024 -0.6438 -0.1212 -4.0530
    7PEO   O23F 4787   0.467   3.006  -1.087  0.2791 -0.1268  0.0081
    7PEO   H240 4788   0.326   3.050  -1.242  0.2848 -0.7768 -2.6229
    7PEO   H241 4789   0.461   2.931  -1.276 -1.5347  1.7329 -4.5228
    7PEO   C242 4790   0.431   3.024  -1.224  0.1843  0.1646 -0.2857
    7PEO   C243 4791   0.506   3.142  -1.281  0.2485 -1.3787 -0.0768
    7PEO   H244 4792   0.446   3.172  -1.368  2.1508  0.4692 -0.8163
    7PEO   H245 4793   0.500   3.224  -1.209 -0.6730 -0.1975 -1.4384
    7PEO   O246 4794   0.637   3.109  -1.316 -0.0757 -0.1907  0.7580
    7PEO   H247 4795   0.708   3.308  -1.298 -0.4620  0.0555 -0.6887
    7PEO   H248 4796   0.633   3.266  -1.455 -0.1009 -2.2028 -2.2183
    7PEO   C249 4797   0.695   3.228  -1.372 -0.7659  0.0110 -0.5903
    7PEO   C24A 4798   0.826   3.197  -1.433 -0.9192 -0.7626 -0.3169
    7PEO   H24B 4799   0.832   3.095  -1.475 -1.0936 -0.5167 -0.9500
    7PEO   H24C 4800   0.841   3.267  -1.516 -3.4479 -1.0730 -1.1051
    7PEO   O24D 4801   0.935   3.217  -1.349  0.6959  0.2100 -0.4272
    7PEO   H24E 4802   1.107   3.334  -1.400 -1.4676  0.6002  2.7737
    7PEO   H24F 4803   1.065   3.199  -1.515  0.7596  0.1633 -0.0240
    7PEO   C250 4804   1.069   3.231  -1.410 -0.2579  0.3307 -0.0332
    7PEO   C251 4805   1.149   3.120  -1.344 -0.5009  0.8587 -0.1429
    7PEO   H252 4806   1.077   3.049  -1.300 -0.1336 -0.7073 -1.9021
    7PEO   H253 4807   1.208   3.074  -1.425  1.9225  3.0221  0.2792
    7PEO   O254 4808   1.245   3.161  -1.242 -0.0790  0.2100 -0.6840
    7PEO   H255 4809   1.138   3.137  -1.073 -2.5100  2.2119  0.1570
    7PEO   H256 4810   1.110   3.292  -1.155 -2.8798 -1.9740  1.3505
    7PEO   C257 4811   1.186   3.218  -1.129  0.2672  0.5041 -0.1162
    7PEO   C258 4812   1.295   3.274  -1.037  0.3476  0.0302 -0.0684
    7PEO   H259 4813   1.269   3.287  -0.931  0.0713  3.7674 -0.4729
    7PEO   H25A 4814   1.381   3.206  -1.050 -0.3137 -0.6231 -1.2366
    7PEO   O25B 4815   1.311   3.397  -1.090  0.6328  0.0085 -0.2285
    7PEO   H25C 4816   1.524   3.394  -1.101  0.2108  0.3326  0.6735
    7PEO   H25D 4817   1.454   3.425  -0.947  0.5312 -0.6448 -0.8641
    7PEO   C25E 4818   1.440   3.447  -1.054 -0.4123  0.4738 -0.5409
    7PEO   C25F 4819   1.429   3.597  -1.083  0.7379  0.0822 -0.4930
    7PEO   H260 4820   1.536   3.623  -1.086  0.9527 -0.7231  0.0655
    7PEO   H261 4821   1.392   3.623  -1.183 -1.6224 -3.7808 -0.8424
    7PEO   O262 4822   1.366   3.666  -0.979 -0.1896  0.0455 -0.1729
    7PEO   H263 4823   1.541   3.675  -0.860  0.2586 -3.0903 -0.1142
    7PEO   H264 4824   1.407   3.576  -0.797  0.3468  0.7776  0.0704
    7PEO   C265 4825   1.432   3.668  -0.853 -0.1266  0.5627 -0.4916
    7PEO   C266 4826   1.382   3.788  -0.776  0.6520  0.7164 -0.5349
    7PEO   H267 4827   1.274   3.808  -0.773  0.4656  0.3682 -2.9600
    7PEO   H268 4828   1.418   3.771  -0.673 -0.5404 -2.9429 -0.5730
    7PEO   O269 4829   1.456   3.889  -0.833  0.0517  0.2188  0.2478
    7PEO   H26A 4830   1.381   4.044  -0.725  0.4470  0.7557  2.1175
    7PEO   H26B 4831   1.506   4.083  -0.837  0.0267 -2.0947 -1.7610
    7PEO   C26C 4832   1.478   4.007  -0.763 -0.8028 -0.3736 -0.2433
    7PEO   C26D 4833   1.588   3.997  -0.647  0.6850  1.0127  0.6237
    7PEO   H26E 4834   1.568   4.059  -0.558  2.4338  1.2529  0.8909
    7PEO   H26F 4835   1.611   3.891  -0.632  1.6392  0.6754 -2.4570
    7PEO   O270 4836   1.707   4.051  -0.701  0.4392  0.2873 -0.2084
    7PEO   H271 4837   1.831   3.961  -0.569 -0.4807  0.2529  3.1115
    7PEO   H272 4838   1.755   4.119  -0.512  0.1634  1.4519 -0.7120
    7PEO   C273 4839   1.805   4.066  -0.594  0.0693 -0.2139  0.2601
    7PEO   C274 4840   1.929   4.143  -0.634 -0.8532 -0.2743 -0.1480
    7PEO   H275 4841   2.001   4.150  -0.551 -0.4312  1.1876 -0.5950
    7PEO   H276 4842   1.977   4.102  -0.724 -2.3030 -4.2292  0.6952
    7PEO   O277 4843   1.910   4.280  -0.675 -0.2802  0.7932 -0.0368
    7PEO   H278 4844   2.091   4.320  -0.753 -1.8533 -0.0842 -1.0475
    7PEO   H279 4845   2.074   4.379  -0.582  2.2968 -1.1696 -0.6771
    7PEO   C27A 4846   2.025   4.367  -0.679 -0.4529 -0.4588  0.5322
    7PEO   C27B 4847   1.987   4.505  -0.732  0.0959  0.3752 -0.6970
    7PEO   H27C 4848   2.079   4.563  -0.715  1.2471 -1.6237  0.2941
    7PEO   H27D 4849   1.962   4.503  -0.839 -1.8897  1.8040 -0.3165
    7PEO   O27E 4850   1.887   4.555  -0.635  0.6272 -0.2850  0.0655
    7PEO   H27F 4851   1.834   4.692  -0.767 -1.2290  0.6994  0.1639
    7PEO   H280 4852   1.958   4.748  -0.645  0.4330  0.4268 -3.9959
    7PEO   C281 4853   1.864   4.692  -0.661  0.0272 -0.2640 -0.1629
    7PEO   C282 4854   1.748   4.748  -0.593  0.6542 -0.3957 -0.8742
    7PEO   H283 4855   1.739   4.856  -0.612 -0.9296  0.0176  1.6358
    7PEO   H284 4856   1.649   4.712  -0.624  0.1010  0.4553 -0.1602
    7PEO   O285 4857   1.769   4.725  -0.447  0.4417  0.1230 -0.1891
    7PEO   H286 4858   1.568   4.706  -0.405  1.4088 -0.3022 -1.0203
    7PEO   H287 4859   1.626   4.869  -0.392 -1.9541 -0.6102  0.2743
    7PEO   C288 4860   1.653   4.765  -0.367  0.3347  0.0861  0.9557
    7PEO   C289 4861   1.689   4.730  -0.220 -0.3132 -0.0840 -0.1015
    7PEO   H28A 4862   1.610   4.765  -0.151  1.5756  0.9439  1.6620
    7PEO   H28B 4863   1.696   4.621  -0.208 -0.0909 -0.0742 -0.1298
    7PEO   O28C 4864   1.809   4.804  -0.182 -0.3428  0.2526  0.1920
    7PEO   H28D 4865   1.851   4.947  -0.315  3.0319  1.3259  0.6868
    7PEO   H28E 4866   1.909   4.992  -0.161  0.6572  1.1263 -1.3530
    7PEO   C28F 4867   1.825   4.941  -0.208  0.4195  0.1599  0.0613
    7PEO   C290 4868   1.692   5.019  -0.177  0.4946  0.7423  0.4297
    7PEO   H291 4869   1.722   5.120  -0.208  0.6475  0.5827  0.0463
    7PEO   H292 4870   1.607   4.983  -0.237  0.9309 -1.9945  1.3379
    7PEO   O293 4871   1.682   5.016  -0.037  0.0542  0.1321 -0.0928
    7PEO   H294 4872   1.514   5.123  -0.045  0.6632  1.6925 -1.6690
    7PEO   H295 4873   1.655   5.216   0.031  1.3260 -0.7380  0.6541
    7PEO   C296 4874   1.602   5.120   0.020 -0.4566  0.2786 -0.1141
    7PEO   C297 4875   1.549   5.097   0.164  0.5388 -0.5181 -0.2189
    7PEO   H298 4876   1.495   5.188   0.191  1.9037  0.8754 -1.9444
    7PEO   H299 4877   1.480   5.012   0.166  0.2702 -0.2938  0.3085
    7PEO   O29A 4878   1.655   5.079   0.258 -0.6563  0.2735 -0.7560
    7PEO   H29B 4879   1.563   4.928   0.380 -0.8750 -0.1308  0.8395
    7PEO   H29C 4880   1.538   5.094   0.427  1.5502  0.2245  1.0411
    7PEO   C29D 4881   1.615   5.024   0.391  0.1893 -0.5314 -0.4892
    7PEO   C29E 4882   1.734   5.002   0.489  0.0708 -1.2729 -0.3940
    7PEO   H29F 4883   1.700   4.948   0.578  0.3802 -0.8405 -0.0105
    7PEO   H2A0 4884   1.810   4.938   0.442  0.6346 -1.0860  0.2606
    7PEO   O2A1 4885   1.780   5.143   0.516 -0.3666  0.4632 -0.6348
    7PEO   H2A2 4886   1.915   5.228   0.660 -0.8099  0.7664  2.0887
    7PEO   H2A3 4887   1.878   5.050   0.675  0.4394  1.6195  1.4509
    7PEO   C2A4 4888   1.839   5.149   0.647 -0.6144  0.8574  0.0820
    7PEO   C2A5 4889   1.731   5.202   0.738 -0.2247  0.6770 -0.2015
    7PEO   H2A6 4890   1.636   5.147   0.729  0.0892  0.1613 -0.4373
    7PEO   H2A7 4891   1.771   5.204   0.840  2.8877 -1.7510 -1.2066
    7PEO   O2A8 4892   1.683   5.332   0.697  0.6414 -0.4629 -0.4219
    7PEO   H2A9 4893   1.622   5.492   0.815 -2.2345  0.4413  1.6623
    7PEO   H2AA 4894   1.600   5.329   0.893  2.3913  1.2766  0.8506
    7PEO   C2AB 4895   1.594   5.386   0.799  0.1162 -0.0310  0.1227
    7PEO   C2AC 4896   1.443   5.390   0.748  0.2270 -0.7919 -0.0817
    7PEO   H2AD 4897   1.445   5.456   0.660  1.0348  0.4488  0.8396
    7PEO   H2AE 4898   1.423   5.289   0.708  3.1668 -0.4797 -2.7054
    7PEO   O2AF 4899   1.348   5.443   0.848 -0.0486 -0.2301 -0.1576
    7PEO   H2B0 4900   1.294   5.634   0.801 -0.0338 -3.5806 -2.8176
    7PEO   H2B1 4901   1.433   5.636   0.904 -2.0777  2.1429 -0.0811
    7PEO   C2B2 4902   1.338   5.583   0.887 -0.7631 -0.2624 -0.2543
    7PEO   C2B3 4903   1.248   5.584   1.008 -0.2179  0.1682 -0.1869
    7PEO   H2B4 4904   1.197   5.682   1.005 -1.1650 -0.2492  1.1025
    7PEO   H2B5 4905   1.173   5.504   0.996  1.2284 -1.2267 -0.1133
    7PEO   O2B6 4906   1.308   5.566   1.131  1.0903  0.2604  0.4697
    7PEO   H2B7 4907   1.454   5.413   1.087  1.8315 -0.2126  1.5526
    7PEO   H2B8 4908   1.291   5.350   1.141 -1.0548  1.2992 -0.6203
    7PEO   C2B9 4909   1.364   5.431   1.148  0.6590 -0.2382 -0.1119
    7PEO   C2BA 4910   1.414   5.426   1.292 -0.4994 -0.1825 -0.5778
    7PEO   H2BB 4911   1.450   5.328   1.325 -0.2437  0.3403  0.7732
    7PEO   H2BC 4912   1.499   5.494   1.309 -1.5633  1.2846 -0.9548
    7PEO   O2BD 4913   1.315   5.477   1.386 -0.0560  0.4946 -0.7165
    7PEO   H2BE 4914   1.231   5.441   1.351  1.1582 -2.9848 -0.4943
    8PEO   H001 4915   2.427   1.470   4.698  1.2683  0.6143 -0.1533
    8PEO   H002 4916   2.559   1.379   4.772 -1.1037 -3.1551  0.5487
    8PEO   H003 4917   2.588   1.458   4.621  1.4213 -1.1410 -0.1594
    8PEO   C004 4918   2.511   1.402   4.676  0.8468 -0.0301  0.1821
    8PEO   C005 4919   2.465   1.269   4.602  0.3582  0.3628  0.7096
    8PEO   H006 4920   2.370   1.241   4.649 -0.8519  3.6965  0.5170
    8PEO   H007 4921   2.439   1.275   4.495 -1.1003 -4.8333  0.5075
    8PEO   O008 4922   2.560   1.155   4.618 -0.5346 -0.6531 -0.2371
    8PEO   H009 4923   2.402   1.020   4.595  0.2204 -0.0899 -2.5262
    8PEO   H00A 4924   2.566   0.948   4.636  0.6526 -1.3179 -0.1803
    8PEO   C00B 4925   2.511   1.024   4.579  0.7376 -0.9483  0.2259
    8PEO   C00C 4926   2.528   0.997   4.426  0.2578 -0.9308 -0.3789
    8PEO   H00D 4927   2.601   1.069   4.387 -1.8719  0.8089 -1.3240
    8PEO   H00E 4928   2.580   0.900   4.425 -0.3000 -1.3050  1.5084
    8PEO   O00F 4929   2.401   1.007   4.350 -0.2592 -0.2307  0.0572
    8PEO   H010 4930   2.524   0.988   4.175 -0.2070  0.0683 -2.0685
    8PEO   H011 4931   2.347   1.018   4.162  0.1741  2.7387  3.0136
    8PEO   C012 4932   2.426   0.965   4.217  0.6233 -0.5979 -0.4136
    8PEO   C013 4933   2.405   0.816   4.212 -1.0412 -0.0345 -0.2712
    8PEO   H014 4934   2.323   0.783   4.277 -0.2124  0.5480  1.1232
    8PEO   H015 4935   2.361   0.801   4.112 -0.4725 -1.6353 -0.3190
    8PEO   O016 4936   2.531   0.748   4.234 -0.0044  0.0232 -0.4020
    8PEO   H017 4937   2.466   0.565   4.144  0.8780  2.1579 -0.6826
    8PEO   H018 4938   2.443   0.580   4.328  0.3063  0.3370  1.4925
    8PEO   C019 4939   2.505   0.601   4.240 -0.4666 -0.1234  0.8283
    8PEO   C01A 4940   2.643   0.529   4.248 -0.0627 -0.2344 -0.8561
    8PEO   H01B 4941   2.671   0.483   4.152 -0.6160 -1.6220 -0.3844
    8PEO   H01C 4942   2.728   0.594   4.274  0.6074 -1.2975 -0.2635
    8PEO   O01D 4943   2.636   0.433   4.356  0.1922  0.3636  0.0262
    8PEO   H01E 4944   2.843   0.456   4.396 -0.5894  0.3889  1.4038
    8PEO   H01F 4945   2.796   0.328   4.290  1.6722 -0.7258  1.0345
    8PEO   C020 4946   2.766   0.378   4.383 -0.2392  0.2695 -0.0605
    8PEO   C021 4947   2.759   0.276   4.493 -0.0567  0.0968  0.2500
    8PEO   H022 4948   2.854   0.282   4.548  0.3228  2.7910 -0.5674
    8PEO   H023 4949   2.681   0.304   4.565  0.0181  1.4251 -0.1630
    8PEO   O024 4950   2.726   0.149   4.428 -0.5268 -0.2047  0.1273
    8PEO   H025 4951   2.917   0.066   4.417  0.2005  1.1269 -0.5645
    8PEO   H026 4952   2.875   0.153   4.272  1.5433 -1.3835 -0.0477
    8PEO   C027 4953   2.833   0.088   4.351 -0.6004  0.0157  0.0391
    8PEO   C028 4954   2.775  -0.044   4.294  0.1576 -0.3209  0.8560
    8PEO   H029 4955   2.859  -0.106   4.259 -2.0914 -2.7321 -0.6579
    8PEO   H02A 4956   2.707  -0.101   4.358 -0.5512 -2.6749 -1.8010
    8PEO   O02B 4957   2.702  -0.020   4.170 -0.0685  0.4347 -0.2042
    8PEO   H02C 4958   2.578   0.136   4.232 -0.9717  0.0271  0.1783
    8PEO   H02D 4959   2.498  -0.020   4.240 -2.0478  1.3549 -0.6101
    8PEO   C02E 4960   2.571   0.038   4.182 -0.2710 -0.0137  0.1519
    8PEO   C02F 4961   2.520   0.066   4.036 -0.3980  0.9013  0.4804
    8PEO   H030 4962   2.437   0.138   4.045 -0.9588  0.0146  3.3445
    8PEO   H031 4963   2.603   0.098   3.971  1.7849 -1.6267  1.8284
    8PEO   O032 4964   2.470  -0.068   3.992  0.3427 -0.1146 -0.1799
    8PEO   H033 4965   2.517  -0.054   3.781  1.6798  0.0553  0.8744
    8PEO   H034 4966   2.373   0.023   3.834 -1.7828 -1.3777  0.2644
    8PEO   C035 4967   2.436  -0.065   3.854  0.5250  0.0274 -0.3707
    8PEO   C036 4968   2.344  -0.180   3.821  0.4194 -0.1538  0.2103
    8PEO   H037 4969   2.266  -0.187   3.898  0.3627  0.6871  0.2382
    8PEO   H038 4970   2.307  -0.164   3.718  1.0344 -0.3768 -0.0514
    8PEO   O039 4971   2.414  -0.299   3.811  0.1620  0.5289  0.1312
    8PEO   H03A 4972   2.272  -0.437   3.737  1.4662  0.7647 -1.1138
    8PEO   H03B 4973   2.263  -0.401   3.920 -0.8117 -1.0557  0.4612
    8PEO   C03C 4974   2.325  -0.413   3.830 -0.6672 -0.1517  0.4350
    8PEO   C03D 4975   2.401  -0.544   3.861 -0.1173 -0.3508  0.5938
    8PEO   H03E 4976   2.471  -0.527   3.944 -2.3167  1.8403  2.1549
    8PEO   H03F 4977   2.324  -0.618   3.884 -0.1582  0.0760  1.8901
    8PEO   O040 4978   2.473  -0.580   3.744 -0.1042 -0.5950 -0.1284
    8PEO   H041 4979   2.677  -0.613   3.786  0.1059  1.5962 -2.0141
    8PEO   H042 4980   2.630  -0.675   3.631  0.2936 -1.3239  0.0123
    8PEO   C043 4981   2.595  -0.664   3.735 -0.0364 -0.0655 -0.2141
    8PEO   C044 4982   2.565  -0.797   3.800 -0.0202  0.5231 -0.8615
    8PEO   H045 4983   2.657  -0.857   3.796  0.5733  0.9968  2.5176
    8PEO   H046 4984   2.560  -0.777   3.908  0.7843 -0.3331 -0.6469
    8PEO   O047 4985   2.447  -0.866   3.751 -0.2164  0.5252 -0.3515
    8PEO   H048 4986   2.361  -0.875   3.936  1.2505  0.5013  0.0093
    8PEO   H049 4987   2.477  -1.000   3.894 -0.6715  0.7813 -0.4677
    8PEO   C04A 4988   2.392  -0.942   3.855 -0.9382  0.2480 -0.6905
    8PEO   C04B 4989   2.270  -1.028   3.813  0.5878  0.2069 -0.7361
    8PEO   H04C 4990   2.182  -1.004   3.875 -1.2325  0.0196 -3.0573
    8PEO   H04D 4991   2.256  -1.002   3.707  2.5430  2.1472 -0.5788
    8PEO   O04E 4992   2.301  -1.166   3.823 -0.2518  0.1653 -0.5145
    8PEO   H04F 4993   2.208  -1.234   3.649 -2.1707 -1.9034 -0.3739
    8PEO   H050 4994   2.104  -1.199   3.799 -0.3716  0.5484 -1.4039
    8PEO   C051 4995   2.199  -1.238   3.759 -0.0461 -0.1059 -0.0756
    8PEO   C052 4996   2.220  -1.385   3.803 -0.2322 -0.1173  0.0197
    8PEO   H053 4997   2.157  -1.451   3.741 -2.5209 -0.4117  2.4923
    8PEO   H054 4998   2.323  -1.418   3.784 -0.4891  0.5541 -3.0463
    8PEO   O055 4999   2.174  -1.401   3.940 -0.7383 -0.1804  0.4544
    8PEO   H056 5000   2.185  -1.609   3.928  2.2878  0.6081 -1.4615
    8PEO   H057 5001   2.164  -1.554   4.093  1.2616 -1.3525  0.5490
    8PEO   C058 5002   2.212  -1.528   3.997 -0.1871  0.1370  0.1820
    8PEO   C059 5003   2.364  -1.525   4.026  0.6590 -0.0662  0.5750
    8PEO   H05A 5004   2.400  -1.422   4.013 -0.0305  0.3091  1.5223
    8PEO   H05B 5005   2.390  -1.540   4.132 -1.4877  3.4262  1.7531
    8PEO   O05C 5006   2.433  -1.614   3.927  0.3293 -0.1755  0.0235
    8PEO   H05D 5007   2.308  -1.774   3.890 -0.4186  1.6612  0.3453
    8PEO   H05E 5008   2.390  -1.766   4.048  1.6418  0.6832  1.1828
    8PEO   C05F 5009   2.402  -1.749   3.940 -0.1419 -0.1694  0.8089
    8PEO   C060 5010   2.527  -1.849   3.896  0.9542  0.1335 -0.2609
    8PEO   H061 5011   2.609  -1.813   3.960 -0.6134 -2.3211  3.5044
    8PEO   H062 5012   2.515  -1.950   3.936 -1.1079  0.9812  1.5070
    8PEO   O063 5013   2.536  -1.833   3.757  0.1230 -0.5515 -0.0784
    8PEO   H064 5014   2.740  -1.872   3.767  0.5901  1.1942 -0.3141
    8PEO   H065 5015   2.675  -1.818   3.608  1.7453 -1.8047 -0.8922
    8PEO   C066 5016   2.656  -1.880   3.696  0.3441 -0.0638  0.0973
    8PEO   C067 5017   2.642  -2.029   3.652 -0.4910  0.0622 -0.5598
    8PEO   H068 5018   2.557  -2.040   3.583  0.1545  1.3656 -1.6202
    8PEO   H069 5019   2.727  -2.060   3.588 -3.1622 -3.9392 -2.6187
    8PEO   O06A 5020   2.644  -2.126   3.760  1.1960  0.1422 -0.8787
    8PEO   H06B 5021   2.837  -2.064   3.823 -0.4695  0.7045  2.7571
    8PEO   H06C 5022   2.825  -2.234   3.778 -0.5179 -1.6798  1.8336
    8PEO   C06D 5023   2.772  -2.152   3.830 -0.0279  0.0494 -0.2331
    8PEO   C06E 5024   2.750  -2.198   3.979 -0.3760  0.8462  0.1657
    8PEO   H06F 5025   2.677  -2.280   3.970 -0.1075  0.5488  0.6710
    8PEO   H070 5026   2.839  -2.221   4.039 -0.9105  2.0100  1.4527
    8PEO   O071 5027   2.694  -2.090   4.052  0.3214  0.3737 -0.1251
    8PEO   H072 5028   2.738  -2.179   4.235  0.4910  0.1841 -0.9216
    8PEO   H073 5029   2.570  -2.210   4.184 -1.6346  2.1310  2.2457
    8PEO   C074 5030   2.648  -2.133   4.191  0.2958  0.5314 -0.1795
    8PEO   C075 5031   2.599  -2.009   4.265  0.4709  0.1882  0.6054
    8PEO   H076 5032   2.582  -2.036   4.370 -2.5401  0.6018  0.3115
    8PEO   H077 5033   2.676  -1.931   4.264  0.1909  0.5932 -3.1065
    8PEO   O078 5034   2.478  -1.959   4.196 -0.3358 -0.3593  0.0231
    8PEO   H079 5035   2.391  -2.136   4.285  2.4040  0.1338  0.9090
    8PEO   H07A 5036   2.343  -2.096   4.115 -0.8702 -1.7519  0.7709
    8PEO   C07B 5037   2.373  -2.056   4.213 -0.9793 -0.8780  0.4491
    8PEO   C07C 5038   2.271  -1.972   4.285 -0.2342 -0.1935  0.3121
    8PEO   H07D 5039   2.184  -2.037   4.298 -2.4859  1.0466 -5.4683
    8PEO   H07E 5040   2.300  -1.923   4.379 -2.4162 -1.8516  1.9570
    8PEO   O07F 5041   2.208  -1.873   4.203 -0.1658 -0.2552  0.0851
    8PEO   H080 5042   2.037  -1.826   4.319  1.5550  0.9203  2.4791
    8PEO   H081 5043   2.076  -1.720   4.175 -0.6536 -1.0988 -0.7737
    8PEO   C082 5044   2.116  -1.774   4.262  0.1099  0.3839 -0.1713
    8PEO   C083 5045   2.188  -1.677   4.365  0.5215 -0.2508  1.0269
    8PEO   H084 5046   2.158  -1.709   4.466 -1.8727 -1.7321 -0.0703
    8PEO   H085 5047   2.298  -1.689   4.361  0.8834  2.0273  2.2058
    8PEO   O086 5048   2.167  -1.545   4.325 -0.4427 -0.5737 -0.1540
    8PEO   H087 5049   2.316  -1.464   4.437 -1.1390 -1.2980  0.1198
    8PEO   H088 5050   2.159  -1.443   4.512  0.5421 -0.6104 -0.8016
    8PEO   C089 5051   2.211  -1.438   4.415 -0.3574  1.0641 -1.2421
    8PEO   C08A 5052   2.180  -1.303   4.362  0.5775  0.5493 -0.1609
    8PEO   H08B 5053   2.075  -1.301   4.329  0.8824 -0.6020 -1.2895
    8PEO   H08C 5054   2.209  -1.228   4.437  1.7731  0.9705 -1.0006
    8PEO   O08D 5055   2.260  -1.280   4.241 -0.1509  0.1414  0.6131
    8PEO   H08E 5056   2.119  -1.144   4.198  1.5092  1.6667  2.3539
    8PEO   H08F 5057   2.225  -1.195   4.056 -0.0408  1.3729 -0.5490
    8PEO   C090 5058   2.221  -1.168   4.163  0.4188  0.4557 -0.2861
    8PEO   C091 5059   2.296  -1.040   4.210 -0.9246  0.2855  0.2575
    8PEO   H092 5060   2.244  -0.943   4.202  0.0349  0.7368 -0.8877
    8PEO   H093 5061   2.317  -1.050   4.317  1.2835 -0.3182 -0.1688
    8PEO   O094 5062   2.423  -1.026   4.152 -0.4311 -0.0702  0.4103
    8PEO   H095 5063   2.503  -1.222   4.108  3.6089  0.0414 -0.1644
    8PEO   H096 5064   2.492  -1.173   4.279  1.2839  1.5282  0.3492
    8PEO   C097 5065   2.511  -1.137   4.177  0.0527  0.5803 -0.2456
    8PEO   C098 5066   2.654  -1.085   4.168  0.4640  0.0113  0.6417
    8PEO   H099 5067   2.718  -1.171   4.141  1.5789  1.2676 -0.9301
    8PEO   H09A 5068   2.663  -1.013   4.085  0.8827 -0.3195  0.3942
    8PEO   O09B 5069   2.699  -1.024   4.290  0.5531  0.4214 -0.6973
    8PEO   H09C 5070   2.531  -0.950   4.379 -1.8123  2.0801 -2.4062
    8PEO   H09D 5071   2.591  -0.842   4.249  1.6208  0.5859 -0.3255
    8PEO   C09E 5072   2.621  -0.908   4.332  0.3706  0.7059  0.2444
    8PEO   C09F 5073   2.693  -0.825   4.436 -0.0202 -0.4122  0.2274
    8PEO   H0A0 5074   2.799  -0.807   4.412 -0.5950  2.3523 -0.6854
    8PEO   H0A1 5075   2.653  -0.722   4.430  0.8085 -0.1133 -0.4191
    8PEO   O0A2 5076   2.680  -0.880   4.566  0.1282 -0.5107  0.3660
    8PEO   H0A3 5077   2.499  -0.803   4.623 -0.4590  0.9704 -1.8847
    8PEO   H0A4 5078   2.634  -0.686   4.634 -1.9129  0.5985  1.9875
    8PEO   C0A5 5079   2.606  -0.792   4.648 -0.7745 -0.0074  0.1054
    8PEO   C0A6 5080   2.639  -0.837   4.795 -1.0129 -0.1629 -0.0457
    8PEO   H0A7 5081   2.552  -0.820   4.860  0.8872  3.9113  1.7865
    8PEO   H0A8 5082   2.674  -0.941   4.801 -0.6637 -0.4419 -4.0750
    8PEO   O0A9 5083   2.750  -0.758   4.842  0.0589  0.4790 -0.2226
    8PEO   H0AA 5084   2.645  -0.608   4.955  1.2005  2.8763  1.7181
    8PEO   H0AB 5085   2.697  -0.561   4.794 -0.9242 -3.1578 -1.6030
    8PEO   C0AC 5086   2.727  -0.618   4.882 -0.5027 -0.5614  0.0444
    8PEO   C0AD 5087   2.862  -0.568   4.941  0.1393  0.0092 -0.3574
    8PEO   H0AE 5088   2.946  -0.587   4.873  0.0330 -2.3781  0.0918
    8PEO   H0AF 5089   2.842  -0.460   4.949 -1.1889 -0.1067 -1.6437
    8PEO   O0B0 5090   2.877  -0.621   5.072  0.1552  0.2337 -0.1241
    8PEO   H0B1 5091   2.921  -0.447   5.186  1.4506 -0.5686  3.4863
    8PEO   H0B2 5092   3.052  -0.499   5.082 -1.3271 -0.4046 -2.4077
    8PEO   C0B3 5093   2.970  -0.537   5.145  0.2559  0.1605  0.1222
    8PEO   C0B4 5094   3.017  -0.621   5.265  0.1879 -0.0578 -0.4877
    8PEO   H0B5 5095   3.064  -0.565   5.347  2.3419 -0.2728 -1.5278
    8PEO   H0B6 5096   2.931  -0.679   5.303  2.5888 -2.9527  0.9328
    8PEO   O0B7 5097   3.112  -0.722   5.221  0.0724  0.1622  0.0895
    8PEO   H0B8 5098   3.127  -0.859   5.389  0.1033 -0.9743 -0.2367
    8PEO   H0B9 5099   3.231  -0.723   5.396  0.8327  1.0467 -1.1605
    8PEO   C0BA 5100   3.185  -0.792   5.324 -0.0993 -0.0909  0.4639
    8PEO   C0BB 5101   3.308  -0.856   5.252  0.5997  0.0568 -0.2931
    8PEO   H0BC 5102   3.365  -0.928   5.312 -2.0167 -2.8428 -1.0583
    8PEO   H0BD 5103   3.266  -0.903   5.162  0.6347  2.4829 -1.6871
    8PEO   O0BE 5104   3.381  -0.734   5.210  0.0114  0.5364  0.3906
    8PEO   H0BF 5105   3.463  -0.777   5.032 -1.1970 -1.2438 -0.2734
    8PEO   H0C0 5106   3.558  -0.843   5.173  0.9142  0.1790  1.0702
    8PEO   C0C1 5107   3.502  -0.758   5.133  0.0550 -1.1506 -0.7491
    8PEO   C0C2 5108   3.593  -0.634   5.126 -0.1044  0.4223  0.0938
    8PEO   H0C3 5109   3.665  -0.655   5.046  1.4046  1.9189  0.9969
    8PEO   H0C4 5110   3.547  -0.538   5.101 -1.3078 -0.3132 -0.6481
    8PEO   O0C5 5111   3.676  -0.625   5.247  0.1521 -0.1582  0.8724
    8PEO   H0C6 5112   3.503  -0.621   5.376 -0.3255  0.3699 -2.4352
    8PEO   H0C7 5113   3.567  -0.465   5.355  0.1106 -0.0399  1.7965
    8PEO   C0C8 5114   3.600  -0.569   5.369  0.2781 -0.2227  0.2226
    8PEO   C0C9 5115   3.677  -0.596   5.493  0.1144 -0.0058 -0.6889
    8PEO   H0CA 5116   3.779  -0.564   5.466 -0.1193  0.8811 -0.5492
    8PEO   H0CB 5117   3.636  -0.535   5.575 -1.8438  0.7171 -2.1512
    8PEO   O0CC 5118   3.683  -0.734   5.517  0.1887 -0.4977 -0.0729
    8PEO   H0CD 5119   3.505  -0.797   5.446  0.9966 -1.0468  0.4198
    8PEO   H0CE 5120   3.503  -0.738   5.624 -0.6445 -0.7872  0.9813
    8PEO   C0CF 5121   3.556  -0.791   5.543 -0.1972 -0.4028  1.0170
    8PEO   C0D0 5122   3.581  -0.925   5.606 -0.5063  0.8343 -0.2004
    8PEO   H0D1 5123   3.681  -0.930   5.652  0.4686 -3.8212 -2.1929
    8PEO   H0D2 5124   3.513  -0.947   5.689  1.7596 -3.1729  0.8614
    8PEO   O0D3 5125   3.566  -1.029   5.503 -0.8096  0.3172 -0.4611
    8PEO   H0D4 5126   3.757  -1.109   5.505  0.5818 -1.6312  3.5090
    8PEO   H0D5 5127   3.631  -1.219   5.432 -0.7765 -1.9594  1.4929
    8PEO   C0D6 5128   3.653  -1.144   5.509 -0.0205 -0.6489  0.0731
    8PEO   C0D7 5129   3.628  -1.229   5.636  0.1725  0.9399  0.4847
    8PEO   H0D8 5130   3.521  -1.220   5.660  0.1821  0.4933  0.7115
    8PEO   H0D9 5131   3.650  -1.337   5.628 -3.7942  0.0988 -1.4831
    8PEO   O0DA 5132   3.710  -1.166   5.737 -0.3697  0.2625  0.1662
    8PEO   H0DB 5133   3.753  -1.172   5.943 -2.4041  0.5869  1.5943
    8PEO   H0DC 5134   3.725  -1.333   5.874  1.7346 -0.0593 -0.6421
    8PEO   C0DD 5135   3.694  -1.227   5.868  0.4408 -0.3911 -0.0646
    8PEO   C0DE 5136   3.560  -1.210   5.931  0.8739  0.1641 -0.3438
    8PEO   H0DF 5137   3.563  -1.224   6.040  1.7149  1.6160 -0.1616
    8PEO   H0E0 5138   3.520  -1.108   5.928 -1.3475 -0.6525 -1.0300
    8PEO   O0E1 5139   3.452  -1.300   5.879  0.3157  0.5435  0.2784
    8PEO   H0E2 5140   3.319  -1.231   6.026 -1.2091  0.4780 -0.0709
    8PEO   H0E3 5141   3.243  -1.345   5.907 -0.3894  1.0733  2.3091
    8PEO   C0E4 5142   3.319  -1.266   5.922  0.6577  0.5987 -0.1597
    8PEO   C0E5 5143   3.270  -1.147   5.839  0.4436 -0.7257 -0.0467
    8PEO   H0E6 5144   3.167  -1.123   5.869  1.0981  0.3822  1.4306
    8PEO   H0E7 5145   3.331  -1.056   5.846  0.4349 -0.7169 -0.0878
    8PEO   O0E8 5146   3.261  -1.188   5.701 -0.3791 -0.4282  0.1260
    8PEO   H0E9 5147   3.256  -0.988   5.615  0.0850  0.3631 -0.7584
    8PEO   H0EA 5148   3.100  -1.054   5.662  0.7598  0.2794  2.2533
    8PEO   C0EB 5149   3.199  -1.082   5.623  0.1817  0.3967  0.6091
    8PEO   C0EC 5150   3.173  -1.134   5.483  0.6994  0.1617  0.1952
    8PEO   H0ED 5151   3.173  -1.056   5.405 -0.1886 -0.4965 -0.4735
    8PEO   H0EE 5152   3.262  -1.177   5.435  3.1742  3.6284  1.2055
    8PEO   O0EF 5153   3.054  -1.215   5.473 -0.6326 -0.3265  0.4966
    8PEO   H0F0 5154   3.146  -1.365   5.580  1.9330  0.2031 -0.7672
    8PEO   H0F1 5155   3.097  -1.409   5.418 -2.2932 -0.6626 -0.3206
    8PEO   C0F2 5156   3.066  -1.351   5.506  0.7834  0.0421  0.4158
    8PEO   C0F3 5157   2.925  -1.389   5.557 -0.9114  0.0048 -0.1622
    8PEO   H0F4 5158   2.862  -1.337   5.484 -2.7669 -2.2210 -0.2424
    8PEO   H0F5 5159   2.916  -1.499   5.559 -1.8807  0.0852  1.0537
    8PEO   O0F6 5160   2.891  -1.346   5.687  0.0205 -0.2093  0.6412
    8PEO   H0F7 5161   2.740  -1.473   5.751  1.9582 -0.6578 -0.8595
    8PEO   H0F8 5162   2.689  -1.354   5.634  0.9946  0.7332 -0.8534
    8PEO   C0F9 5163   2.751  -1.367   5.724  0.3863 -0.3935 -0.5709
    8PEO   C0FA 5164   2.705  -1.279   5.842 -0.5082  0.7872 -0.0916
    8PEO   H0FB 5165   2.613  -1.318   5.889  0.4176  0.5212  1.5817
    8PEO   H0FC 5166   2.782  -1.271   5.919  0.4250  1.9108 -1.0989
    8PEO   O0FD 5167   2.668  -1.149   5.784  0.1513 -0.3728  0.1453
    8PEO   H0FE 5168   2.727  -0.961   5.724  0.5362  0.2437 -0.2787
    8PEO   H0FF 5169   2.855  -1.084   5.730  0.9829 -0.0057  1.9837
    8PEO   C100 5170   2.765  -1.048   5.781 -0.4714 -0.2214 -0.3034
    8PEO   C101 5171   2.809  -1.007   5.920 -0.2033 -0.2410 -0.1916
    8PEO   H102 5172   2.857  -1.078   5.990  1.9078 -0.2871 -1.6049
    8PEO   H103 5173   2.893  -0.938   5.904  0.2020 -1.3786 -3.9642
    8PEO   O104 5174   2.699  -0.940   5.987  0.3593 -0.1959 -0.5778
    8PEO   H105 5175   2.826  -0.779   6.026 -1.6808  1.3481 -1.2205
    8PEO   H106 5176   2.800  -0.896   6.154  0.7435  0.1274 -0.4278
    8PEO   C107 5177   2.747  -0.836   6.079  0.0153  0.0196 -0.0059
    8PEO   C108 5178   2.630  -0.741   6.124 -0.6396  0.3060 -0.3494
    8PEO   H109 5179   2.677  -0.653   6.169 -0.5055 -0.3174  0.7562
    8PEO   H10A 5180   2.566  -0.724   6.036 -1.6462 -1.0496  0.0906
    8PEO   O10B 5181   2.541  -0.800   6.222  0.3833 -0.7579 -0.8439
    8PEO   H10C 5182   2.695  -0.887   6.343  1.7100  2.6708 -0.6877
    8PEO   H10D 5183   2.523  -0.889   6.408  1.1244 -0.3877  0.1238
    8PEO   C10E 5184   2.599  -0.834   6.352  0.3421  0.2713 -0.3171
    8PEO   C10F 5185   2.617  -0.707   6.437 -0.0317 -0.6571  0.3704
    8PEO   H110 5186   2.539  -0.639   6.400 -1.3847 -2.5475 -0.4454
    8PEO   H111 5187   2.612  -0.725   6.546  1.1411 -2.0348  0.2275
    8PEO   O112 5188   2.743  -0.640   6.409  0.0414  0.0842  0.3090
    8PEO   H113 5189   2.856  -0.787   6.503 -0.9713 -0.4644  0.4548
    8PEO   H114 5190   2.859  -0.624   6.582 -0.5586 -1.4297  0.3969
    8PEO   C115 5191   2.858  -0.678   6.486 -0.0284 -0.5571 -0.1236
    8PEO   C116 5192   2.977  -0.660   6.393 -0.3590 -0.2190  0.5116
    8PEO   H117 5193   3.059  -0.732   6.406  1.3775  1.1331 -2.0549
    8PEO   H118 5194   2.937  -0.681   6.292 -1.6283  2.4357  0.3639
    8PEO   O119 5195   3.028  -0.525   6.410 -0.1661  0.2764  0.3417
    8PEO   H11A 5196   3.100  -0.341   6.321 -1.7695  1.0450 -1.3799
    8PEO   H11B 5197   3.037  -0.459   6.198 -2.1596  0.9186  1.1826
    8PEO   C11C 5198   3.085  -0.447   6.296 -0.6598  0.3984  0.5420
    8PEO   C11D 5199   3.226  -0.499   6.277  0.2770 -0.0492 -0.6771
    8PEO   H11E 5200   3.294  -0.423   6.235  1.6817 -0.5346  0.6371
    8PEO   H11F 5201   3.261  -0.529   6.377 -3.2198  0.3397  0.8155
    8PEO   O120 5202   3.208  -0.618   6.184 -0.0427 -0.2303 -0.2987
    8PEO   H121 5203   3.397  -0.702   6.222 -1.0321 -0.3813  0.7295
    8PEO   H122 5204   3.383  -0.576   6.089  1.6816  1.1789  3.7187
    8PEO   C123 5205   3.338  -0.665   6.136 -0.0528 -0.0130  0.1938
    8PEO   C124 5206   3.313  -0.769   6.031  0.0760 -0.1223 -0.8582
    8PEO   H125 5207   3.207  -0.771   6.003 -0.4653  1.2747  0.9220
    8PEO   H126 5208   3.370  -0.744   5.940  0.6465 -1.1865 -0.8139
    8PEO   O127 5209   3.339  -0.902   6.088 -0.3429  0.1374 -0.2086
    8PEO   H128 5210   3.196  -1.027   6.124  2.2877 -2.6077  1.1758
    8PEO   H129 5211   3.181  -0.878   6.224 -1.3176 -1.5096  0.6274
    8PEO   C12A 5212   3.251  -0.953   6.185  0.2005  0.2721 -0.2143
    8PEO   C12B 5213   3.328  -1.028   6.296  0.3740  0.3846  0.2504
    8PEO   H12C 5214   3.257  -1.085   6.358 -0.8147  2.5916  1.0088
    8PEO   H12D 5215   3.400  -1.089   6.239 -0.2844 -0.7955  0.6469
    8PEO   O12E 5216   3.392  -0.943   6.392  0.1344 -0.6426  0.3795
    8PEO   H12F 5217   3.256  -0.952   6.543  2.0503 -1.5355  0.0201
    8PEO   H130 5218   3.222  -0.823   6.426 -0.7888 -1.6181 -1.3512
    8PEO   C131 5219   3.303  -0.874   6.481 -0.5261 -0.0485 -0.2055
    8PEO   C132 5220   3.381  -0.773   6.571 -0.2993 -0.2466  0.0721
    8PEO   H133 5221   3.449  -0.715   6.507 -1.1211  0.9852  0.2749
    8PEO   H134 5222   3.308  -0.701   6.613 -0.9659 -1.0888  0.3847
    8PEO   O135 5223   3.462  -0.830   6.670 -0.0969  0.3312 -0.2471
    8PEO   H136 5224   3.420  -0.686   6.802 -0.6710 -2.0185  0.2886
    8PEO   H137 5225   3.579  -0.655   6.720 -0.0453  0.9452  0.3780
    8PEO   C138 5226   3.512  -0.732   6.761  0.3576  0.2890 -0.1543
    8PEO   C139 5227   3.598  -0.802   6.877  0.1126 -0.0877 -0.4673
    8PEO   H13A 5228   3.608  -0.727   6.957 -0.4824 -0.0587 -0.4133
    8PEO   H13B 5229   3.540  -0.887   6.916 -3.9067  3.1513  1.3505
    8PEO   O13C 5230   3.722  -0.853   6.823  0.3584  0.2052  0.0986
    8PEO   H13D 5231   3.749  -1.024   6.944  1.5797 -1.5586 -2.5512
    8PEO   H13E 5232   3.804  -0.877   7.021  2.0123 -1.5056 -0.0456
    8PEO   C13F 5233   3.796  -0.926   6.923 -0.4136 -0.0982 -0.6597
    8PEO   C140 5234   3.949  -0.957   6.888  0.6720  0.0905  0.8327
    8PEO   H141 5235   4.000  -0.999   6.976  0.1216 -0.2830  0.9754
    8PEO   H142 5236   3.943  -1.025   6.802  0.1015  0.9415  0.1817
    8PEO   O143 5237   3.991  -0.823   6.861  0.2547  0.2812  0.2835
    8PEO   H144 5238   4.198  -0.855   6.850 -1.6087  0.6974  2.7174
    8PEO   H145 5239   4.133  -0.692   6.807 -1.7668  0.5005  0.8613
    8PEO   C146 5240   4.116  -0.800   6.801 -0.4298  0.3071  0.2006
    8PEO   C147 5241   4.114  -0.839   6.642  0.1099 -0.3103  0.3391
    8PEO   H148 5242   4.221  -0.841   6.615  0.5842  1.2239  1.8705
    8PEO   H149 5243   4.074  -0.940   6.626 -2.1542  0.1543  2.4833
    8PEO   O14A 5244   4.054  -0.730   6.572 -0.1675 -0.4762  0.3823
    8PEO   H14B 5245   3.911  -0.598   6.541  0.0845  0.5301 -1.0742
    8PEO   H14C 5246   3.882  -0.695   6.695  1.0959 -1.5332  0.8211
    8PEO   C14D 5247   3.920  -0.694   6.592 -0.0943  1.2288  0.3193
    8PEO   C14E 5248   3.826  -0.804   6.537  1.0812 -0.2327  0.4349
    8PEO   H14F 5249   3.849  -0.901   6.585 -1.7390 -2.2387 -1.8645
    8PEO   H150 5250   3.727  -0.766   6.565  1.9719  0.8774  2.2175
    8PEO   O151 5251   3.824  -0.818   6.395  0.5542 -0.0284  0.5909
    8PEO   H152 5252   3.615  -0.799   6.331  0.4656 -0.1163 -0.5989
    8PEO   H153 5253   3.662  -0.953   6.395  3.0595 -0.8700  0.5049
    8PEO   C154 5254   3.700  -0.869   6.335  0.3794 -0.2118 -0.4272
    8PEO   C155 5255   3.742  -0.917   6.189  0.0680  0.3502 -0.7970
    8PEO   H156 5256   3.850  -0.941   6.188  0.0436  0.0113  1.0788
    8PEO   H157 5257   3.694  -1.016   6.180 -3.6027  1.6034  2.2745
    8PEO   O158 5258   3.693  -0.822   6.096 -0.0769  0.0451  0.4143
    8PEO   H159 5259   3.685  -0.946   5.925  4.6798 -1.6164  0.0005
    8PEO   H15A 5260   3.841  -0.862   5.957  1.1887 -0.4040  0.7645
    8PEO   C15B 5261   3.732  -0.851   5.957  1.2435  0.3346 -0.2927
    8PEO   C15C 5262   3.687  -0.726   5.881 -0.4495  0.0351  0.8232
    8PEO   H15D 5263   3.681  -0.742   5.773 -0.0098  1.4642  0.5662
    8PEO   H15E 5264   3.586  -0.697   5.911 -0.2074 -0.9700  2.7996
    8PEO   O15F 5265   3.788  -0.635   5.895  0.2177 -0.3403  0.0991
    8PEO   H160 5266   3.896  -0.559   5.731 -2.6820  1.4000  0.4861
    8PEO   H161 5267   3.902  -0.736   5.744 -4.3855  0.2381 -1.2671
    8PEO   C162 5268   3.899  -0.643   5.803 -0.0148  0.2797 -0.8176
    8PEO   C163 5269   4.028  -0.629   5.885 -0.2652  0.1286  0.0720
    8PEO   H164 5270   4.022  -0.694   5.974  0.8062  1.5477  1.2449
    8PEO   H165 5271   4.119  -0.668   5.838 -0.7034 -3.4737  1.8780
    8PEO   O166 5272   4.057  -0.494   5.929 -0.0895  0.0173  0.0524
    8PEO   H167 5273   3.866  -0.470   6.024  0.2086 -0.3457 -0.8569
    8PEO   H168 5274   3.983  -0.334   6.042  3.8989 -0.4407 -2.4020
    8PEO   C169 5275   3.972  -0.443   6.035  0.2078 -0.3015 -0.9590
    8PEO   C16A 5276   4.018  -0.494   6.178  0.1385 -0.3114  1.0461
    8PEO   H16B 5277   3.964  -0.451   6.264  1.4223 -1.0979  2.2859
    8PEO   H16C 5278   4.008  -0.603   6.187 -2.4379  0.0092  3.0044
    8PEO   O16D 5279   4.157  -0.466   6.191 -0.0820 -0.1935  0.0977
    8PEO   H16E 5280   4.217  -0.664   6.246  0.1146  0.0951 -0.2055
    8PEO   H16F 5281   4.167  -0.559   6.376  1.9636  1.3895  1.8226
    8PEO   C170 5282   4.220  -0.559   6.280 -0.5665 -0.0582  0.3412
    8PEO   C171 5283   4.370  -0.536   6.314  0.0482 -0.0056 -0.2560
    8PEO   H172 5284   4.415  -0.622   6.366  0.7425 -0.1020 -0.9932
    8PEO   H173 5285   4.437  -0.509   6.230 -0.1455  2.0411  0.1878
    8PEO   O174 5286   4.386  -0.421   6.399 -0.2349  0.3633 -0.1251
    8PEO   H175 5287   4.234  -0.293   6.338  0.1443  1.8638 -2.0137
    8PEO   H176 5288   4.392  -0.296   6.246 -0.8117 -0.6124  0.0870
    8PEO   C177 5289   4.343  -0.299   6.344 -0.0184 -0.1317  0.4943
    8PEO   C178 5290   4.392  -0.180   6.434 -0.4318  0.0056  0.2019
    8PEO   H179 5291   4.501  -0.170   6.428 -0.4420  0.8199  1.0938
    8PEO   H17A 5292   4.363  -0.088   6.380 -0.2052 -0.4732 -0.7686
    8PEO   O17B 5293   4.338  -0.166   6.561  0.4375 -0.5286 -0.4076
    8PEO   H17C 5294   4.172  -0.290   6.542  0.2511 -1.2773  3.0435
    8PEO   H17D 5295   4.144  -0.103   6.531  0.1948 -0.2714 -0.2902
    8PEO   C17E 5296   4.194  -0.188   6.579 -0.1779 -0.1283  0.3693
    8PEO   C17F 5297   4.169  -0.191   6.734  0.5979 -0.9174 -0.0421
    8PEO   H180 5298   4.059  -0.193   6.732  0.5046  1.7553 -0.4267
    8PEO   H181 5299   4.224  -0.274   6.781  0.5811 -0.0333  1.6348
    8PEO   O182 5300   4.228  -0.069   6.782  0.2442  0.0309 -0.0885
    8PEO   H183 5301   4.273   0.038   6.944 -1.5395  1.0431  1.6688
    8PEO   H184 5302   4.343  -0.119   6.949  1.4096  1.2886 -2.1690
    8PEO   C185 5303   4.250  -0.067   6.922  0.2923  0.8196  0.5403
    8PEO   C186 5304   4.122  -0.108   7.004  0.2121 -0.1703 -0.3992
    8PEO   H187 5305   4.126  -0.052   7.099  1.9205  0.1983 -0.6711
    8PEO   H188 5306   4.042  -0.058   6.946  2.5530  1.6726 -2.2212
    8PEO   O189 5307   4.117  -0.251   7.029 -0.6752 -0.4470 -0.1311
    8PEO   H18A 5308   4.108  -0.222   7.233  1.1549  2.8789 -2.9432
    8PEO   H18B 5309   4.109  -0.396   7.180  0.2174 -0.0682  0.0090
    8PEO   C18C 5310   4.071  -0.295   7.160 -0.1237 -0.1177  0.3963
    8PEO   C18D 5311   3.919  -0.296   7.155  0.2522  0.2879 -0.0064
    8PEO   H18E 5312   3.875  -0.290   7.256  1.7874  2.3474  0.5792
    8PEO   H18F 5313   3.888  -0.202   7.106  2.1738  1.8846  1.6848
    8PEO   O190 5314   3.870  -0.415   7.085 -0.5630  0.4561  0.0941
    8PEO   H191 5315   3.984  -0.443   6.920 -0.3662  1.1776 -2.6108
    8PEO   H192 5316   3.864  -0.303   6.909 -0.0599  0.1238  0.1250
    8PEO   C193 5317   3.883  -0.407   6.942 -0.4155 -0.1052 -0.3898
    8PEO   C194 5318   3.791  -0.504   6.871  0.5891 -0.7033  0.3987
    8PEO   H195 5319   3.844  -0.516   6.775  2.2443  2.9761  0.6918
    8PEO   H196 5320   3.781  -0.595   6.932  1.0100 -0.7339  0.4284
    8PEO   O197 5321   3.657  -0.454   6.852  0.4946  0.6040  0.2566
    8PEO   H198 5322   3.640  -0.333   7.017  1.4628 -2.2401  1.4895
    8PEO   H199 5323   3.561  -0.497   7.030 -1.3162  0.7235  0.9342
    8PEO   C19A 5324   3.584  -0.412   6.964  0.0845 -0.3698 -0.0322
    8PEO   C19B 5325   3.460  -0.342   6.900  0.6146  0.1046  0.4621
    8PEO   H19C 5326   3.405  -0.273   6.966 -3.1684 -1.4475 -0.7722
    8PEO   H19D 5327   3.478  -0.297   6.801 -0.3688  2.1083  1.1451
    8PEO   O19E 5328   3.375  -0.460   6.872  0.2482 -0.0940 -0.2927
    8PEO   H19F 5329   3.289  -0.364   6.705 -0.1984  2.4928  0.9726
    8PEO   H1A0 5330   3.214  -0.333   6.848 -0.1976 -1.0455  0.3932
    8PEO   C1A1 5331   3.260  -0.418   6.797  0.2276 -0.3306 -0.4490
    8PEO   C1A2 5332   3.154  -0.530   6.786  0.0442  0.2870  0.2763
    8PEO   H1A3 5333   3.085  -0.511   6.703  0.2406 -1.1836 -0.2487
    8PEO   H1A4 5334   3.197  -0.629   6.768 -1.2871  0.1366 -2.6586
    8PEO   O1A5 5335   3.086  -0.533   6.913 -0.0735 -0.3380 -0.3557
    8PEO   H1A6 5336   2.975  -0.701   6.870 -2.7221  0.6265 -1.5269
    8PEO   H1A7 5337   2.890  -0.551   6.840 -1.1914 -0.9483 -0.1520
    8PEO   C1A8 5338   2.963  -0.599   6.908 -0.1495  0.5248 -0.1980
    8PEO   C1A9 5339   2.909  -0.617   7.054  0.4998 -0.4927 -0.2436
    8PEO   H1AA 5340   2.832  -0.692   7.033  0.7226 -0.1040 -2.7902
    8PEO   H1AB 5341   2.983  -0.663   7.120  0.4995 -1.1362 -0.6848
    8PEO   O1AC 5342   2.857  -0.486   7.093 -0.5221  0.6168  0.0945
    8PEO   H1AD 5343   2.858  -0.516   7.301  0.9081 -0.4400  0.0997
    8PEO   H1AE 5344   2.721  -0.586   7.206  0.7626 -0.2218 -0.0078
    8PEO   C1AF 5345   2.787  -0.499   7.219  0.4451 -0.0567  0.5684
    8PEO   C1B0 5346   2.706  -0.370   7.244  0.4172 -0.1919  0.2422
    8PEO   H1B1 5347   2.643  -0.341   7.159  0.8043 -1.5578 -0.5399
    8PEO   H1B2 5348   2.638  -0.386   7.330 -0.0728 -1.6567 -0.3931
    8PEO   O1B3 5349   2.805  -0.268   7.278 -0.4039  0.0104  0.1046
    8PEO   H1B4 5350   2.669  -0.114   7.347  0.2816 -0.4982  1.3544
    8PEO   H1B5 5351   2.707  -0.107   7.182 -3.7339  0.9911  0.5136
    8PEO   C1B6 5352   2.752  -0.136   7.278 -0.9138  1.0776 -0.6831
    8PEO   C1B7 5353   2.865  -0.039   7.312 -0.3567 -0.1166  0.3464
    8PEO   H1B8 5354   2.818   0.060   7.316  2.0804  1.2266 -1.1648
    8PEO   H1B9 5355   2.924  -0.060   7.402 -1.5036 -0.9621  0.9240
    8PEO   O1BA 5356   2.945  -0.029   7.196 -0.8213 -0.7795 -0.2553
    8PEO   H1BB 5357   3.025  -0.211   7.257 -0.6224  0.4647 -0.0546
    8PEO   H1BC 5358   3.149  -0.079   7.209 -0.9995  1.4295  2.3754
    8PEO   C1BD 5359   3.053  -0.129   7.189  0.1428  0.0763 -0.2288
    8PEO   C1BE 5360   3.053  -0.191   7.053 -0.5897 -0.1999  0.1700
    8PEO   H1BF 5361   3.148  -0.245   7.046 -0.5021 -0.1477  0.8493
    8PEO   H1C0 5362   2.961  -0.250   7.038  0.5972 -1.6308 -1.9742
    8PEO   O1C1 5363   3.059  -0.095   6.948  0.4071  0.0676  0.0879
    8PEO   H1C2 5364   3.274  -0.071   6.931  0.1597  0.2166 -0.5711
    8PEO   H1C3 5365   3.198   0.042   7.041  0.6701  2.5034 -1.4322
    8PEO   C1C4 5366   3.179  -0.020   6.951  0.1899 -0.0717  0.3284
    8PEO   C1C5 5367   3.165   0.087   6.840  0.1306  0.8344 -0.2033
    8PEO   H1C6 5368   3.068   0.139   6.849  0.9202  2.3001  0.2382
    8PEO   H1C7 5369   3.243   0.164   6.850  0.8510  0.1197 -0.2262
    8PEO   O1C8 5370   3.181   0.019   6.705 -0.1121  0.0262  0.4086
    8PEO   H1C9 5371   3.045   0.153   6.610 -0.2693  1.1790 -1.1380
    8PEO   H1CA 5372   3.102   0.018   6.511  0.5288  0.3046  0.6229
    8PEO   C1CB 5373   3.134   0.094   6.584 -0.0875  0.6260  0.5714
    8PEO   C1CC 5374   3.242   0.183   6.521 -1.0254  0.6217 -0.3338
    8PEO   H1CD 5375   3.328   0.116   6.502 -1.7428 -1.4462  2.8448
    8PEO   H1CE 5376   3.205   0.224   6.426  0.9983 -1.7697 -2.3258
    8PEO   O1CF 5377   3.291   0.278   6.612 -0.3090  0.6276 -0.0340
    8PEO   H1D0 5378   3.469   0.304   6.497 -0.4706 -0.1415  0.1100
    8PEO   H1D1 5379   3.441   0.401   6.653  0.4886 -2.4825  1.2158
    8PEO   C1D2 5380   3.399   0.361   6.560 -0.1927 -0.2117  0.4886
    8PEO   C1D3 5381   3.329   0.481   6.483 -0.2436 -0.1960  0.4707
    8PEO   H1D4 5382   3.226   0.479   6.521 -0.7670 -4.6698 -0.6171
    8PEO   H1D5 5383   3.386   0.574   6.495 -1.1334  0.5337 -0.7398
    8PEO   O1D6 5384   3.324   0.442   6.348 -0.1959  1.0341 -0.1343
    8PEO   H1D7 5385   3.127   0.494   6.320 -1.6185  2.4195  0.1561
    8PEO   H1D8 5386   3.232   0.479   6.167 -0.7227 -2.0798  0.8844
    8PEO   C1D9 5387   3.224   0.512   6.271 -0.9765 -0.2227  0.3046
    8PEO   C1DA 5388   3.248   0.665   6.284 -0.3163  0.1952 -0.2531
    8PEO   H1DB 5389   3.176   0.717   6.219 -2.0695 -0.9807  0.6635
    8PEO   H1DC 5390   3.240   0.699   6.389  0.7963 -0.1627 -0.0425
    8PEO   O1DD 5391   3.384   0.686   6.244 -0.4124  0.4798  1.4274
    8PEO   H1DE 5392   3.473   0.793   6.396 -2.1808  0.9775  1.2384
    8PEO   H1DF 5393   3.385   0.887   6.269 -0.4454  0.0171  0.9593
    8PEO   C1E0 5394   3.454   0.803   6.288  0.6090  0.8096  0.6670
    8PEO   C1E1 5395   3.586   0.807   6.204  0.7766  0.5135  0.1899
    8PEO   H1E2 5396   3.569   0.770   6.101  2.1526  1.7024 -0.4986
    8PEO   H1E3 5397   3.612   0.914   6.200  1.0859  0.4499  0.4428
    8PEO   O1E4 5398   3.692   0.743   6.284  0.0311  0.0599  0.0282
    8PEO   H1E5 5399   3.715   0.589   6.165 -0.7434 -0.3782 -0.3518
    8PEO   H1E6 5400   3.588   0.570   6.285 -0.1518  0.4224 -1.3518
    8PEO   C1E7 5401   3.692   0.601   6.272  0.1009  0.1156 -0.2217
    8PEO   C1E8 5402   3.785   0.521   6.366 -0.0059  0.5413  0.0406
    8PEO   H1E9 5403   3.805   0.422   6.322 -0.2571 -0.5826  2.2943
    8PEO   H1EA 5404   3.879   0.578   6.371  0.2197  0.0866  3.5857
    8PEO   O1EB 5405   3.718   0.517   6.492 -0.3185 -0.5162 -0.7932
    8PEO   H1EC 5406   3.882   0.586   6.613 -0.1308 -0.2148  0.2325
    8PEO   H1ED 5407   3.873   0.411   6.578 -2.6156 -0.7977 -2.1386
    8PEO   C1EE 5408   3.814   0.500   6.605 -0.3742 -0.0827  0.8585
    8PEO   C1EF 5409   3.728   0.464   6.735 -0.0929 -0.7104  0.6582
    8PEO   H1F0 5410   3.657   0.381   6.719 -0.6948 -0.2295  0.7779
    8PEO   H1F1 5411   3.807   0.435   6.805  1.7359 -1.0087 -1.4160
    8PEO   O1F2 5412   3.663   0.587   6.772 -0.7576  0.0138  0.2694
    8PEO   H1F3 5413   3.635   0.532   6.972  2.0183 -1.8067 -1.8870
    8PEO   H1F4 5414   3.508   0.494   6.850 -0.8418  0.5642  1.7588
    8PEO   C1F5 5415   3.578   0.570   6.885  0.2847  0.3566  0.0557
    8PEO   C1F6 5416   3.484   0.687   6.904  0.1006  0.3315  0.4877
    8PEO   H1F7 5417   3.464   0.741   6.811 -3.0442  1.2019  1.5546
    8PEO   H1F8 5418   3.392   0.657   6.956  0.1275  0.3965  0.5749
    8PEO   O1F9 5419   3.531   0.789   6.992 -0.1768 -0.4841  0.0877
    8PEO   H1FA 5420   3.352   0.826   7.099 -0.1483  1.5062  1.4837
    8PEO   H1FB 5421   3.381   0.916   6.948  1.3975 -0.1627 -0.5480
    8PEO   C1FC 5422   3.428   0.876   7.039 -0.1009  0.2198  0.4276
    8PEO   C1FD 5423   3.504   0.990   7.113  0.2797 -0.3029  0.2600
    8PEO   H1FE 5424   3.505   0.962   7.220  0.0361  0.9265  0.5949
    8PEO   H1FF 5425   3.600   1.016   7.067  0.3865  1.1145  1.2051
    8PEO   O200 5426   3.409   1.103   7.103  0.1953 -0.0752  0.6200
    8PEO   H201 5427   3.555   1.242   7.171  0.9497 -0.4545  3.0656
    8PEO   H202 5428   3.446   1.177   7.288  0.9606 -0.4726 -0.8134
    8PEO   C203 5429   3.449   1.214   7.184  0.1311  0.4485 -0.5293
    8PEO   C204 5430   3.344   1.320   7.168 -0.1668  0.8264  0.7176
    8PEO   H205 5431   3.247   1.277   7.197  0.3341  0.2012  1.5305
    8PEO   H206 5432   3.361   1.391   7.251  1.6512 -2.6672  3.6559
    8PEO   O207 5433   3.356   1.384   7.037 -0.6566  0.4856  0.6998
    8PEO   H208 5434   3.263   1.560   7.093  0.0311 -1.7344  1.4206
    8PEO   H209 5435   3.156   1.452   6.993 -0.1179 -0.1430 -3.9815
    8PEO   C20A 5436   3.259   1.485   7.012 -0.6636 -0.2807  0.0682
    8PEO   C20B 5437   3.302   1.572   6.892 -0.0831 -0.3854  0.4497
    8PEO   H20C 5438   3.255   1.672   6.891 -0.6549 -0.6539  0.2122
    8PEO   H20D 5439   3.410   1.594   6.896 -0.3086  0.9070  0.0992
    8PEO   O20E 5440   3.261   1.519   6.773 -0.1295  0.8350 -0.1553
    8PEO   H20F 5441   3.407   1.608   6.672 -0.1582 -0.7830 -0.2093
    8PEO   H210 5442   3.245   1.684   6.642  0.2358 -0.3275  0.8255
    8PEO   C211 5443   3.299   1.590   6.657 -0.1761 -0.7336 -0.1396
    8PEO   C212 5444   3.267   1.509   6.530 -0.4999 -0.0426 -0.5032
    8PEO   H213 5445   3.356   1.518   6.465  1.5064  1.1278  2.2162
    8PEO   H214 5446   3.252   1.406   6.567 -0.5608 -0.1633 -0.8602
    8PEO   O215 5447   3.158   1.569   6.460  0.1116 -0.2377 -0.0690
    8PEO   H216 5448   3.057   1.410   6.382  2.5299 -1.5526 -0.3926
    8PEO   H217 5449   3.196   1.447   6.286 -1.3220  1.0980 -3.0205
    8PEO   C218 5450   3.115   1.494   6.342  0.1425  0.3592 -0.0851
    8PEO   C219 5451   3.033   1.581   6.247 -0.4565 -0.4288  0.2910
    8PEO   H21A 5452   3.092   1.666   6.209  0.0227 -0.7915  0.2197
    8PEO   H21B 5453   3.014   1.516   6.160 -1.3913  1.2616 -0.8452
    8PEO   O21C 5454   2.912   1.628   6.315  0.0161  0.1131  0.1391
    8PEO   H21D 5455   2.820   1.631   6.126  1.8875 -2.3728  1.4123
    8PEO   H21E 5456   2.860   1.799   6.205  0.3072  0.8066  0.5359
    8PEO   C21F 5457   2.830   1.694   6.215  0.6876  0.5910 -0.3890
    8PEO   C220 5458   2.688   1.702   6.279  0.3293 -0.2344 -0.2503
    8PEO   H221 5459   2.610   1.701   6.202  1.0248 -1.3249 -0.9757
    8PEO   H222 5460   2.684   1.608   6.336  3.1479 -0.0394  0.4114
    8PEO   O223 5461   2.676   1.817   6.365  0.2498 -0.5936 -0.4299
    8PEO   H224 5462   2.830   1.877   6.495  0.1925  0.8031  2.7933
    8PEO   H225 5463   2.755   1.715   6.520 -0.3930  0.3611  0.7638
    8PEO   C226 5464   2.736   1.819   6.490  0.5620  0.2850 -0.1654
    8PEO   C227 5465   2.643   1.887   6.585  0.3347 -0.2731  0.1214
    8PEO   H228 5466   2.693   1.911   6.680  0.2596  0.5127 -0.0360
    8PEO   H229 5467   2.608   1.982   6.543 -1.4247 -0.5406  0.8521
    8PEO   O22A 5468   2.529   1.802   6.617  0.9618 -0.0265 -0.4219
    8PEO   H22B 5469   2.330   1.816   6.683  1.4077 -1.5435 -0.2761
    8PEO   H22C 5470   2.416   1.971   6.636  2.5902  0.0295 -1.5197
    8PEO   C22D 5471   2.425   1.871   6.682  0.2523  0.5611  0.2697
    8PEO   C22E 5472   2.460   1.889   6.827 -0.4479  0.1064 -0.5992
    8PEO   H22F 5473   2.545   1.957   6.842 -2.6004  2.8433 -0.1093
    8PEO   H230 5474   2.384   1.949   6.879  1.7238  1.2915  1.3860
    8PEO   O231 5475   2.465   1.763   6.903  0.3311 -0.3621  0.0006
    8PEO   H232 5476   2.409   1.749   7.108 -0.8204 -1.4005 -1.6063
    8PEO   H233 5477   2.506   1.894   7.065 -0.3118 -0.0584  0.4533
    8PEO   C234 5478   2.490   1.787   7.044  0.3001 -0.1517  0.4532
    8PEO   C235 5479   2.623   1.733   7.087  0.3391  0.8116  0.2604
    8PEO   H236 5480   2.706   1.770   7.025  1.5362  0.1316  1.4083
    8PEO   H237 5481   2.639   1.776   7.187 -2.4030  0.0646  1.1276
    8PEO   O238 5482   2.636   1.587   7.089  0.3158 -0.5243 -0.1841
    8PEO   H239 5483   2.589   1.568   6.882  0.1010  0.3883  0.3064
    8PEO   H23A 5484   2.564   1.424   6.981  1.7796 -1.7582 -1.8416
    8PEO   C23B 5485   2.631   1.510   6.965  0.2275 -0.1586 -0.1309
    8PEO   C23C 5486   2.775   1.471   6.920 -0.0876 -0.0620  0.3248
    8PEO   H23D 5487   2.817   1.395   6.989  0.8704 -0.1105 -0.2971
    8PEO   H23E 5488   2.758   1.429   6.820  1.5860  1.2021 -0.5342
    8PEO   O23F 5489   2.853   1.589   6.912  0.1287  0.6238 -0.7537
    8PEO   H240 5490   2.727   1.706   6.794 -0.3267 -0.2326 -0.7393
    8PEO   H241 5491   2.823   1.601   6.700 -2.5108  0.0601  0.3859
    8PEO   C242 5492   2.827   1.660   6.793  0.0003  0.4017  0.1278
    8PEO   C243 5493   2.944   1.760   6.776 -0.1198 -0.0942 -0.0142
    8PEO   H244 5494   3.037   1.702   6.782  0.7561  1.1233 -1.2750
    8PEO   H245 5495   2.939   1.785   6.669 -0.1828 -0.7647 -0.1691
    8PEO   O246 5496   2.936   1.880   6.860 -0.1352  0.6052  0.0127
    8PEO   H247 5497   3.047   2.023   6.767 -1.0289  0.1437 -0.7010
    8PEO   H248 5498   3.147   1.907   6.879  0.3083  1.4251 -0.4560
    8PEO   C249 5499   3.055   1.964   6.860  0.0698  1.1632 -0.1210
    8PEO   C24A 5500   3.025   2.062   6.978 -1.0699 -0.2192 -0.0812
    8PEO   H24B 5501   3.025   2.170   6.954 -1.5977 -0.1190  0.3701
    8PEO   H24C 5502   2.925   2.049   7.020 -0.5952 -0.0002  1.1538
    8PEO   O24D 5503   3.102   2.027   7.096  0.5790 -0.5463 -0.1717
    8PEO   H24E 5504   3.025   1.834   7.102  0.2072 -0.9760 -0.5135
    8PEO   H24F 5505   2.948   1.961   7.211 -2.5830 -1.5830 -3.0108
    8PEO   C250 5506   3.041   1.920   7.168 -1.0072 -0.5751 -0.7277
    8PEO   C251 5507   3.137   1.890   7.286 -0.4706 -0.1805  0.3953
    8PEO   H252 5508   3.194   1.978   7.320 -1.0157 -0.3870  1.9277
    8PEO   H253 5509   3.075   1.866   7.374  0.2359 -1.9095  0.4422
    8PEO   O254 5510   3.226   1.782   7.264 -0.0204 -0.7443  0.2102
    8PEO   H255 5511   3.228   1.632   7.419 -0.3582 -0.2304  0.2304
    8PEO   H256 5512   3.270   1.805   7.463  0.9998 -1.0455  1.0031
    8PEO   C257 5513   3.277   1.725   7.388 -0.4673 -0.2573 -0.0196
    8PEO   C258 5514   3.426   1.699   7.368  0.2144  0.0951  0.4958
    8PEO   H259 5515   3.473   1.791   7.330  1.4219 -1.2533 -1.4204
    8PEO   H25A 5516   3.485   1.668   7.456  1.1126 -1.1128 -0.4940
    8PEO   O25B 5517   3.435   1.606   7.263 -0.1660  0.4893 -0.5354
    8PEO   H25C 5518   3.620   1.711   7.228 -0.8255  0.7656 -3.8494
    8PEO   H25D 5519   3.564   1.581   7.114 -1.3282  1.2760 -0.5468
    8PEO   C25E 5520   3.568   1.615   7.219 -0.1328 -0.1246 -0.1072
    8PEO   C25F 5521   3.650   1.507   7.302  0.1757  0.3117 -0.0100
    8PEO   H260 5522   3.582   1.422   7.320 -1.4357  1.5461 -0.0031
    8PEO   H261 5523   3.736   1.477   7.240  0.1696  0.2958 -0.0109
    8PEO   O262 5524   3.695   1.557   7.429  0.5872 -0.5415  0.0887
    8PEO   H263 5525   3.801   1.706   7.330  0.2644 -0.9194 -0.5545
    8PEO   H264 5526   3.889   1.595   7.441  0.0486  0.8452  0.2452
    8PEO   C265 5527   3.796   1.651   7.425 -0.0811  0.6747  0.3866
    8PEO   C266 5528   3.783   1.761   7.534  0.4013 -0.0981 -0.6234
    8PEO   H267 5529   3.729   1.717   7.619 -0.2964 -1.3643 -1.6859
    8PEO   H268 5530   3.883   1.780   7.576 -0.1930 -0.8970  1.3015
    8PEO   O269 5531   3.712   1.880   7.487 -0.1748 -0.1268 -0.1938
    8PEO   H26A 5532   3.756   2.079   7.558  1.6112  1.1594  4.2874
    8PEO   H26B 5533   3.736   1.955   7.683  0.7458  1.3447 -0.4918
    8PEO   C26C 5534   3.702   1.987   7.584 -0.1015  0.5749 -0.4624
    8PEO   C26D 5535   3.550   2.007   7.594 -0.0818  0.0308  0.2506
    8PEO   H26E 5536   3.503   1.910   7.616 -0.1585  0.4082  1.9369
    8PEO   H26F 5537   3.524   2.080   7.673 -1.0819  0.5913 -0.5753
    8PEO   O270 5538   3.500   2.046   7.473  0.0581  0.1705 -0.0985
    8PEO   H271 5539   3.376   2.172   7.375  2.9203 -0.7161 -1.3607
    8PEO   H272 5540   3.470   2.259   7.495 -1.6017  0.4344 -0.1652
    8PEO   C273 5541   3.414   2.165   7.478 -0.0791 -0.5193 -0.1189
    8PEO   C274 5542   3.304   2.168   7.584 -0.3561  0.0929 -0.1789
    8PEO   H275 5543   3.362   2.179   7.676  0.0759  0.1135 -0.4542
    8PEO   H276 5544   3.245   2.261   7.577  0.2559  0.4836 -0.2115
    8PEO   O277 5545   3.219   2.045   7.577  0.3342 -0.5206  0.1375
    8PEO   H278 5546   3.060   2.121   7.703  0.3883  0.2447  0.6397
    8PEO   H279 5547   3.190   2.039   7.786 -0.4658  0.0766  1.1114
    8PEO   C27A 5548   3.128   2.035   7.695  0.6814  0.5074  0.3020
    8PEO   C27B 5549   3.049   1.904   7.693  0.1036  0.1989  1.4831
    8PEO   H27C 5550   3.108   1.812   7.684 -0.1373  0.1815 -0.2410
    8PEO   H27D 5551   2.991   1.886   7.785  1.9499 -1.3098  2.4271
    8PEO   O27E 5552   2.951   1.907   7.587  0.6967 -0.4205 -0.1757
    8PEO   H27F 5553   2.737   1.864   7.561 -2.7436 -0.8866  1.9563
    8PEO   H280 5554   2.788   1.895   7.721 -2.0574 -0.2570 -0.9965
    8PEO   C281 5555   2.823   1.851   7.627 -0.6956 -0.3564 -0.4566
    8PEO   C282 5556   2.841   1.703   7.653  0.3004 -0.5919 -0.0675
    8PEO   H283 5557   2.917   1.687   7.731  1.3465  2.6222 -0.2856
    8PEO   H284 5558   2.743   1.656   7.671 -0.1294 -0.0937 -1.0477
    8PEO   O285 5559   2.895   1.638   7.534 -0.0541 -0.3225 -0.4591
    8PEO   H286 5560   2.820   1.750   7.382 -0.5031  0.9426  1.1648
    8PEO   H287 5561   2.709   1.614   7.439  1.2361 -1.6123  2.4374
    8PEO   C288 5562   2.812   1.647   7.419  0.2178  0.3625 -0.2306
    8PEO   C289 5563   2.887   1.559   7.311 -0.1934  0.1329  0.2269
    8PEO   H28A 5564   2.844   1.564   7.210  0.6235 -1.2367 -0.2224
    8PEO   H28B 5565   2.993   1.590   7.304 -0.1391 -0.1485 -0.2437
    8PEO   O28C 5566   2.878   1.425   7.353  0.1717  0.4348 -0.1165
    8PEO   H28D 5567   2.982   1.369   7.185  0.7392  1.0439  1.3587
    8PEO   H28E 5568   2.803   1.317   7.189  0.4472 -0.7876  0.0179
    8PEO   C28F 5569   2.897   1.332   7.244  0.3291 -0.1495  0.0561
    8PEO   C290 5570   2.936   1.198   7.313  0.5895 -0.7644 -0.5885
    8PEO   H291 5571   2.868   1.174   7.396  0.1395  0.1136 -0.6851
    8PEO   H292 5572   2.959   1.122   7.237 -0.2545 -2.3104  0.6460
    8PEO   O293 5573   3.060   1.216   7.372  0.4698 -1.2219  0.2759
    8PEO   H294 5574   3.225   1.086   7.359 -0.1200  1.9015 -0.8543
    8PEO   H295 5575   3.073   1.009   7.427  0.3262 -0.3731 -0.9547
    8PEO   C296 5576   3.136   1.100   7.421 -0.1111 -0.0287 -0.3494
    8PEO   C297 5577   3.169   1.127   7.568 -0.2322  0.2229  1.0980
    8PEO   H298 5578   3.089   1.188   7.612 -1.5019 -0.5197 -0.0886
    8PEO   H299 5579   3.183   1.028   7.612  0.7411 -0.4164 -0.5523
    8PEO   O29A 5580   3.290   1.213   7.556 -0.3121  0.7348  0.0357
    8PEO   H29B 5581   3.189   1.385   7.640  1.6281  0.7016  1.5948
    8PEO   H29C 5582   3.250   1.394   7.471 -2.4891  1.0652  0.7377
    8PEO   C29D 5583   3.269   1.354   7.572 -0.2965 -0.5716 -0.2493
    8PEO   C29E 5584   3.399   1.425   7.623 -0.6454  0.0411  0.1108
    8PEO   H29F 5585   3.475   1.398   7.548 -0.6202 -1.1039  0.5265
    8PEO   H2A0 5586   3.389   1.534   7.632 -0.5370  0.0497  0.1279
    8PEO   O2A1 5587   3.438   1.377   7.751  0.1124  0.3483 -0.8701
    8PEO   H2A2 5588   3.643   1.425   7.727 -0.5785 -0.9162 -1.3278
    8PEO   H2A3 5589   3.587   1.395   7.895 -3.7897  2.9170  2.1093
    8PEO   C2A4 5590   3.560   1.440   7.798 -0.0154 -0.3553 -0.7773
    8PEO   C2A5 5591   3.541   1.591   7.821  0.2314 -0.8667 -0.6653
    8PEO   H2A6 5592   3.620   1.639   7.881 -0.5620  3.0876 -2.4909
    8PEO   H2A7 5593   3.555   1.651   7.730  1.8276 -0.5885 -0.2626
    8PEO   O2A8 5594   3.413   1.620   7.886 -0.3147  0.5736 -0.3979
    8PEO   H2A9 5595   3.302   1.781   7.807 -0.2322  1.8275 -0.1864
    8PEO   H2AA 5596   3.481   1.813   7.856 -1.0376  1.6831  1.9657
    8PEO   C2AB 5597   3.386   1.763   7.876 -0.5811 -0.1878 -0.2308
    8PEO   C2AC 5598   3.354   1.814   8.015 -0.4855  0.0266  0.7143
    8PEO   H2AD 5599   3.360   1.735   8.091 -0.5809 -2.2570 -1.5188
    8PEO   H2AE 5600   3.411   1.905   8.038  0.6524 -0.5858  0.3843
    8PEO   O2AF 5601   3.207   1.844   8.011  0.0523 -0.0754  0.1035
    8PEO   H2B0 5602   3.232   1.950   8.181 -0.1977  0.3010 -0.3751
    8PEO   H2B1 5603   3.152   1.796   8.208  4.2549  0.0895  0.1752
    8PEO   C2B2 5604   3.155   1.883   8.142 -0.0622  0.0880 -0.2777
    8PEO   C2B3 5605   3.027   1.965   8.135 -0.1978 -0.5230  0.4516
    8PEO   H2B4 5606   2.950   1.909   8.079  1.1920 -2.2223  0.1384
    8PEO   H2B5 5607   2.993   2.000   8.233  2.7099 -0.1199  1.4009
    8PEO   O2B6 5608   3.059   2.087   8.060 -0.4525 -0.4977 -0.1774
    8PEO   H2B7 5609   2.969   2.227   8.172  1.5879 -0.7952  0.3277
    8PEO   H2B8 5610   2.857   2.140   8.075  1.2695 -1.3810  0.9412
    8PEO   C2B9 5611   2.957   2.184   8.071  0.4019  0.6483 -0.1701
    8PEO   C2BA 5612   2.978   2.275   7.956  0.4545  0.6147 -0.6272
    8PEO   H2BB 5613   3.046   2.235   7.879  1.9297  2.0921 -0.1351
    8PEO   H2BC 5614   2.882   2.290   7.904  1.0910  2.0753 -1.4392
    8PEO   O2BD 5615   3.022   2.404   8.003  1.1959  0.2978 -0.7019
    8PEO   H2BE 5616   3.109   2.388   8.043  1.8866  2.2520 -1.3150
    9PEO   H001 5617   1.621   4.738   0.245  0.0939 -0.0358 -0.1578
    9PEO   H002 5618   1.650   4.759   0.069  0.6639 -1.9164 -0.4966
    9PEO   H003 5619   1.709   4.614   0.136  0.4911  0.7117 -1.2716
    9PEO   C004 5620   1.692   4.720   0.163  0.9040  0.3705  0.4352
    9PEO   C005 5621   1.825   4.773   0.213 -0.0745  0.0632  0.0724
    9PEO   H006 5622   1.889   4.772   0.123 -1.0788  0.4416 -0.6722
    9PEO   H007 5623   1.800   4.874   0.248  0.8967  0.3809 -0.1306
    9PEO   O008 5624   1.884   4.686   0.314 -0.0648 -0.0107  0.6392
    9PEO   H009 5625   2.014   4.806   0.404 -1.2301 -1.6352  2.0126
    9PEO   H00A 5626   2.071   4.745   0.244  1.3768 -1.5842  0.6082
    9PEO   C00B 5627   2.016   4.720   0.336 -0.3184 -0.1318  0.0386
    9PEO   C00C 5628   2.086   4.603   0.408 -1.2890  0.2537  0.4738
    9PEO   H00D 5629   2.175   4.639   0.461 -2.7306 -0.3118  3.4696
    9PEO   H00E 5630   2.021   4.576   0.493 -0.9362  2.6999  1.6174
    9PEO   O00F 5631   2.108   4.508   0.306 -0.1515  0.2199 -0.2302
    9PEO   H010 5632   2.070   4.340   0.423 -0.3425  0.2767 -0.8934
    9PEO   H011 5633   2.233   4.392   0.430 -0.9808  0.4383  1.6288
    9PEO   C012 5634   2.150   4.378   0.358  0.6075 -0.3825 -0.1256
    9PEO   C013 5635   2.197   4.280   0.245 -0.8905  0.6462 -0.2646
    9PEO   H014 5636   2.290   4.329   0.214 -1.5056  2.2706  0.3306
    9PEO   H015 5637   2.217   4.187   0.300 -0.6238  0.3805 -0.8102
    9PEO   O016 5638   2.100   4.245   0.149  0.2477 -0.0405 -0.3781
    9PEO   H017 5639   2.184   4.064   0.062 -0.1760 -0.9735  1.2331
    9PEO   H018 5640   2.213   4.212  -0.022 -0.3234 -0.4261 -0.0737
    9PEO   C019 5641   2.137   4.161   0.038  0.2961 -0.9693  0.2671
    9PEO   C01A 5642   2.014   4.126  -0.052  0.2037  0.2615 -1.0466
    9PEO   H01B 5643   2.044   4.042  -0.117  1.6941 -1.2717  1.4466
    9PEO   H01C 5644   1.932   4.103   0.017  1.5437 -1.1885  0.1458
    9PEO   O01D 5645   1.966   4.233  -0.130 -1.0567 -0.4652  0.2624
    9PEO   H01E 5646   1.808   4.107  -0.191 -0.2847  0.6767  0.8385
    9PEO   H01F 5647   1.920   4.149  -0.323 -2.3468 -1.7296 -1.1524
    9PEO   C020 5648   1.870   4.188  -0.233  0.1695 -0.2309 -0.3005
    9PEO   C021 5649   1.792   4.314  -0.278  0.6851 -0.8498 -0.3832
    9PEO   H022 5650   1.853   4.405  -0.281 -0.3289 -0.1382 -0.1598
    9PEO   H023 5651   1.744   4.291  -0.375 -1.7964 -2.5579  1.1388
    9PEO   O024 5652   1.677   4.329  -0.188 -0.1314  0.3275 -0.6848
    9PEO   H025 5653   1.766   4.441  -0.031 -2.6953  0.9327  3.3968
    9PEO   H026 5654   1.764   4.264  -0.006  0.4448 -0.0559 -0.5805
    9PEO   C027 5655   1.708   4.349  -0.047 -0.1399 -0.2486 -0.1944
    9PEO   C028 5656   1.581   4.362   0.030 -0.4621 -0.3892  1.2105
    9PEO   H029 5657   1.524   4.273  -0.002  1.3590 -2.5590  3.6104
    9PEO   H02A 5658   1.605   4.340   0.135 -3.6657 -1.4220  1.8473
    9PEO   O02B 5659   1.521   4.495   0.013  0.6259 -0.0375  0.4322
    9PEO   H02C 5660   1.368   4.472   0.154 -2.1085  0.0246  0.1744
    9PEO   H02D 5661   1.327   4.446  -0.015 -1.0642  0.1483  0.8150
    9PEO   C02E 5662   1.390   4.507   0.052 -0.5907  0.0281  0.4849
    9PEO   C02F 5663   1.350   4.658   0.039  0.6646 -0.5095  0.0011
    9PEO   H030 5664   1.247   4.667   0.076  0.4505 -0.1616 -0.6566
    9PEO   H031 5665   1.416   4.724   0.097  1.2115 -0.9701 -0.0888
    9PEO   O032 5666   1.352   4.698  -0.097  0.4965 -0.3288  0.4342
    9PEO   H033 5667   1.345   4.854  -0.228 -3.0437 -0.6605 -0.3532
    9PEO   H034 5668   1.418   4.886  -0.063  0.1455  0.3384 -0.1769
    9PEO   C035 5669   1.337   4.837  -0.120 -0.4322  0.8791  0.1596
    9PEO   C036 5670   1.208   4.893  -0.059  0.2239 -0.4750  0.7850
    9PEO   H037 5671   1.175   4.979  -0.120  0.9613  0.4765  1.6855
    9PEO   H038 5672   1.135   4.811  -0.058 -0.1570 -0.2193 -1.1751
    9PEO   O039 5673   1.235   4.944   0.071 -0.1667 -0.1993 -0.7829
    9PEO   H03A 5674   1.049   5.012   0.082 -0.9863 -0.5142  0.9206
    9PEO   H03B 5675   1.152   5.058   0.219 -0.5743  0.2706  0.1123
    9PEO   C03C 5676   1.128   4.976   0.149 -0.2498 -0.0208  0.3383
    9PEO   C03D 5677   1.091   4.850   0.232  0.0663  0.4233  0.4523
    9PEO   H03E 5678   1.009   4.879   0.299 -0.4320 -0.9829  0.4855
    9PEO   H03F 5679   1.055   4.773   0.162 -1.1255  2.5081 -1.3857
    9PEO   O040 5680   1.197   4.810   0.322  0.4933  0.2843  0.0785
    9PEO   H041 5681   1.159   4.598   0.315 -3.1484 -1.9091  1.7368
    9PEO   H042 5682   1.056   4.700   0.412 -0.0009 -2.0797  0.3056
    9PEO   C043 5683   1.160   4.684   0.383  0.1997 -0.3318 -0.0644
    9PEO   C044 5684   1.243   4.656   0.504 -0.9462  0.9010  0.3555
    9PEO   H045 5685   1.257   4.753   0.554  3.5531  0.8519 -0.4554
    9PEO   H046 5686   1.201   4.576   0.566  0.4227  0.7356  1.0825
    9PEO   O047 5687   1.375   4.601   0.461  0.4859  0.7613 -0.1804
    9PEO   H048 5688   1.447   4.581   0.641  1.5731 -0.5626  0.4622
    9PEO   H049 5689   1.498   4.732   0.549  1.5164  0.3316 -1.7095
    9PEO   C04A 5690   1.481   4.624   0.546 -1.2085  0.6073 -0.1190
    9PEO   C04B 5691   1.610   4.545   0.500 -0.3687 -0.6294  0.7651
    9PEO   H04C 5692   1.605   4.545   0.390  1.8008  0.4961  0.6134
    9PEO   H04D 5693   1.687   4.618   0.529 -2.0129  2.1428 -1.3402
    9PEO   O04E 5694   1.614   4.405   0.533 -0.0617  0.1014 -0.6215
    9PEO   H04F 5695   1.822   4.402   0.494  0.0322 -0.0885 -1.8314
    9PEO   H050 5696   1.724   4.304   0.380  0.0274  3.7481 -2.1125
    9PEO   C051 5697   1.736   4.334   0.486 -0.1951  0.0724 -0.9012
    9PEO   C052 5698   1.760   4.210   0.581 -0.0136  0.1487 -0.0262
    9PEO   H053 5699   1.865   4.195   0.608 -0.4989  0.0573  1.9756
    9PEO   H054 5700   1.701   4.227   0.672 -0.1292 -2.7849  0.5367
    9PEO   O055 5701   1.712   4.083   0.517 -0.3960 -0.2370 -0.3959
    9PEO   H056 5702   1.534   4.154   0.426 -1.5684 -1.3377 -1.6190
    9PEO   H057 5703   1.511   4.066   0.579 -0.2919 -1.3747 -0.6140
    9PEO   C058 5704   1.574   4.074   0.490  0.3959  0.7602 -0.0041
    9PEO   C059 5705   1.571   3.939   0.417 -0.1886  0.8040 -0.1511
    9PEO   H05A 5706   1.467   3.911   0.398  0.5031 -2.0695 -0.1611
    9PEO   H05B 5707   1.619   3.955   0.319  0.9816 -0.3343  0.2135
    9PEO   O05C 5708   1.632   3.832   0.489 -0.4717 -0.2717  0.4560
    9PEO   H05D 5709   1.473   3.741   0.585 -0.6522 -0.4892  2.4944
    9PEO   H05E 5710   1.547   3.880   0.664 -0.2893  1.2463 -1.9432
    9PEO   C05F 5711   1.569   3.790   0.605 -0.2877  0.0532 -0.2015
    9PEO   C060 5712   1.666   3.682   0.670  0.4368 -0.4972 -0.0748
    9PEO   H061 5713   1.766   3.719   0.696 -0.7143  2.1792  0.7955
    9PEO   H062 5714   1.628   3.636   0.762 -2.2696 -2.3453 -1.9575
    9PEO   O063 5715   1.675   3.568   0.579 -0.2706 -0.4047 -0.3473
    9PEO   H064 5716   1.692   3.359   0.600  0.8451 -0.6052  0.3273
    9PEO   H065 5717   1.690   3.450   0.751  2.1120  0.5728  1.1282
    9PEO   C066 5718   1.728   3.452   0.647 -0.8452  0.2929 -0.0610
    9PEO   C067 5719   1.883   3.460   0.649 -0.1552 -0.0832 -0.8886
    9PEO   H068 5720   1.923   3.424   0.553 -0.2417  0.4038 -1.1113
    9PEO   H069 5721   1.909   3.567   0.655 -0.8866  0.0561  0.0424
    9PEO   O06A 5722   1.953   3.394   0.758 -0.3776  0.0852 -0.1236
    9PEO   H06B 5723   1.838   3.353   0.920 -0.4175 -2.3890 -5.7026
    9PEO   H06C 5724   1.871   3.530   0.884 -0.8340  0.0204  1.2917
    9PEO   C06D 5725   1.911   3.427   0.884  0.0515  0.3279 -0.2412
    9PEO   C06E 5726   2.039   3.429   0.972  0.8945  0.0818  0.4048
    9PEO   H06F 5727   2.007   3.405   1.074  2.4886 -0.5281  0.7915
    9PEO   H070 5728   2.110   3.350   0.943 -0.0760 -0.6846  0.0484
    9PEO   O071 5729   2.094   3.553   0.969 -0.3192  0.2108 -0.0730
    9PEO   H072 5730   2.058   3.666   0.808  0.5778  0.9721 -0.2086
    9PEO   H073 5731   2.148   3.517   0.774 -0.8990  0.7011 -0.1237
    9PEO   C074 5732   2.135   3.598   0.848 -0.5027  0.1666  0.5393
    9PEO   C075 5733   2.253   3.683   0.866  0.0813 -0.0187 -0.4405
    9PEO   H076 5734   2.334   3.635   0.922 -0.1056 -0.0905 -0.2272
    9PEO   H077 5735   2.293   3.690   0.764  0.2687 -2.5587 -0.5944
    9PEO   O078 5736   2.228   3.813   0.914  1.2382  0.5589 -0.5362
    9PEO   H079 5737   2.333   3.817   1.093  0.0158 -0.8399  0.6517
    9PEO   H07A 5738   2.176   3.736   1.103 -0.0262  2.0689  3.7520
    9PEO   C07B 5739   2.230   3.820   1.057  0.0363  0.4684  0.6383
    9PEO   C07C 5740   2.175   3.957   1.101 -0.2160  0.8722 -0.9861
    9PEO   H07D 5741   2.123   4.007   1.018  1.6939  3.0819 -0.9555
    9PEO   H07E 5742   2.111   3.928   1.186 -0.2874  2.5381 -0.4397
    9PEO   O07F 5743   2.279   4.050   1.141 -0.3059 -0.3607 -0.3485
    9PEO   H080 5744   2.153   4.140   1.277 -0.0395 -2.4108 -0.5609
    9PEO   H081 5745   2.177   4.223   1.114  0.8193  1.4904  0.9020
    9PEO   C082 5746   2.224   4.167   1.197 -0.0700 -0.8177 -0.0727
    9PEO   C083 5747   2.336   4.250   1.262 -0.1341  0.0563  0.2982
    9PEO   H084 5748   2.293   4.313   1.342  4.1620 -0.8538  3.7618
    9PEO   H085 5749   2.418   4.189   1.304  1.0985  0.7672 -1.0182
    9PEO   O086 5750   2.393   4.313   1.150 -0.5068  0.9415 -0.6038
    9PEO   H087 5751   2.495   4.460   1.271 -1.2931  0.8686 -0.1941
    9PEO   H088 5752   2.497   4.465   1.094 -1.1623 -0.4471 -0.1707
    9PEO   C089 5753   2.504   4.398   1.180 -0.6671  0.2151  0.3101
    9PEO   C08A 5754   2.646   4.334   1.177 -0.8864 -0.6008 -0.0035
    9PEO   H08B 5755   2.651   4.262   1.095  0.6693  0.0432 -0.5056
    9PEO   H08C 5756   2.721   4.411   1.155 -1.6079 -0.3530 -1.7157
    9PEO   O08D 5757   2.673   4.285   1.305  0.2085 -0.3715 -0.1275
    9PEO   H08E 5758   2.863   4.236   1.274 -1.3062  2.4852  0.6309
    9PEO   H08F 5759   2.753   4.105   1.226 -0.4204 -1.1135  1.4339
    9PEO   C090 5760   2.773   4.180   1.304  0.2488 -0.2691  0.4844
    9PEO   C091 5761   2.774   4.095   1.427  0.5582  0.2146 -0.8870
    9PEO   H092 5762   2.858   4.026   1.411  1.0610  0.3861  0.8415
    9PEO   H093 5763   2.791   4.153   1.518 -1.1369  0.9378 -0.9946
    9PEO   O094 5764   2.654   4.017   1.431 -0.2558 -0.2372 -0.3851
    9PEO   H095 5765   2.641   4.008   1.632 -0.8024  0.2248 -0.5961
    9PEO   H096 5766   2.763   3.898   1.556  1.1398  1.4518 -0.9380
    9PEO   C097 5767   2.663   3.944   1.546 -0.0446 -0.7164  0.2805
    9PEO   C098 5768   2.547   3.835   1.543  0.2981  0.2032 -0.6099
    9PEO   H099 5769   2.530   3.786   1.447  2.2429 -4.1336  1.0216
    9PEO   H09A 5770   2.570   3.760   1.620  0.3230  0.8630  0.0406
    9PEO   O09B 5771   2.429   3.895   1.601  0.4578 -0.2517  0.5402
    9PEO   H09C 5772   2.363   3.966   1.406 -2.2288  0.5292  0.4396
    9PEO   H09D 5773   2.394   4.089   1.534 -0.6701  0.1006  1.8235
    9PEO   C09E 5774   2.355   3.989   1.513 -0.3530  0.2026  0.6822
    9PEO   C09F 5775   2.209   3.984   1.560  0.5607  0.3628 -0.5142
    9PEO   H0A0 5776   2.208   3.990   1.670 -0.6493  1.3276 -0.5605
    9PEO   H0A1 5777   2.155   4.065   1.509 -1.8101  0.6065  2.1261
    9PEO   O0A2 5778   2.152   3.854   1.532  0.4060 -0.2938 -0.9176
    9PEO   H0A3 5779   1.984   3.751   1.477 -0.0115 -2.3370  3.0535
    9PEO   H0A4 5780   1.969   3.932   1.462 -0.3934 -0.1636  1.3349
    9PEO   C0A5 5781   2.009   3.848   1.521 -0.0765 -0.8789  0.1546
    9PEO   C0A6 5782   1.934   3.859   1.660 -0.2128  0.3849 -0.6518
    9PEO   H0A7 5783   1.850   3.789   1.669  0.3746 -0.3176 -0.5022
    9PEO   H0A8 5784   2.007   3.836   1.739 -1.7325  2.1685  1.3619
    9PEO   O0A9 5785   1.884   3.988   1.680  0.1266 -0.0268  0.1580
    9PEO   H0AA 5786   1.894   4.020   1.886 -0.7808  1.9650  0.2222
    9PEO   H0AB 5787   1.758   3.925   1.816  0.2693  0.5168  0.6913
    9PEO   C0AC 5788   1.824   4.011   1.801  0.2068  0.3846 -0.4564
    9PEO   C0AD 5789   1.731   4.136   1.800  0.8220  0.0388  0.4036
    9PEO   H0AE 5790   1.677   4.147   1.896 -1.2857  0.3821 -0.7580
    9PEO   H0AF 5791   1.793   4.221   1.768  1.6037 -1.2234 -1.5660
    9PEO   O0B0 5792   1.636   4.107   1.687 -0.6825  0.2079  0.9196
    9PEO   H0B1 5793   1.635   4.309   1.645 -2.4082  1.5171  0.3212
    9PEO   H0B2 5794   1.501   4.246   1.734 -0.8778 -2.9015 -0.3017
    9PEO   C0B3 5795   1.566   4.224   1.648 -0.2768 -0.3345 -0.5959
    9PEO   C0B4 5796   1.494   4.207   1.511  0.1230  0.2933  0.6647
    9PEO   H0B5 5797   1.443   4.109   1.511  1.9177 -0.7092  1.8588
    9PEO   H0B6 5798   1.418   4.285   1.493 -0.7433  0.4356  4.1695
    9PEO   O0B7 5799   1.594   4.199   1.404  0.2781 -0.4549  0.3307
    9PEO   H0B8 5800   1.555   4.002   1.347  1.0104 -1.0940 -0.1213
    9PEO   H0B9 5801   1.717   4.028   1.406 -0.9542  0.4113 -0.3203
    9PEO   C0BA 5802   1.638   4.075   1.346 -0.6399  0.8752 -0.3772
    9PEO   C0BB 5803   1.672   4.104   1.200 -0.0780  0.2213 -0.5626
    9PEO   H0BC 5804   1.693   4.008   1.150 -0.3921 -0.5874  0.8167
    9PEO   H0BD 5805   1.589   4.163   1.157 -0.1276  2.2499  2.0728
    9PEO   O0BE 5806   1.799   4.176   1.201 -0.2240 -0.5229 -0.6295
    9PEO   H0BF 5807   1.840   4.105   1.015  2.2024 -0.4342  1.2470
    9PEO   H0C0 5808   1.944   4.249   1.073 -0.1850  0.5789 -2.3835
    9PEO   C0C1 5809   1.845   4.202   1.068 -0.3863  0.6683 -0.3394
    9PEO   C0C2 5810   1.754   4.316   1.004 -0.1672 -0.1480  0.6250
    9PEO   H0C3 5811   1.710   4.379   1.083  0.4479  1.0594  0.0258
    9PEO   H0C4 5812   1.817   4.383   0.943 -0.1530  0.2681  1.0910
    9PEO   O0C5 5813   1.644   4.254   0.930  0.1192 -0.6050 -0.2474
    9PEO   H0C6 5814   1.597   4.395   0.783 -0.7149  2.0152  1.0685
    9PEO   H0C7 5815   1.521   4.426   0.940  0.1868  0.5545 -1.6486
    9PEO   C0C8 5816   1.547   4.347   0.869 -0.4835 -0.9161 -0.3207
    9PEO   C0C9 5817   1.429   4.271   0.807  0.1491  0.2436  0.0939
    9PEO   H0CA 5818   1.371   4.340   0.745  1.0290 -0.6255 -1.8157
    9PEO   H0CB 5819   1.466   4.191   0.740  3.3814  0.8307  0.9927
    9PEO   O0CC 5820   1.346   4.216   0.910  0.0704 -0.0672  0.4816
    9PEO   H0CD 5821   1.496   4.084   0.998  0.3770 -0.2793  1.2359
    9PEO   H0CE 5822   1.396   4.010   0.879 -0.1057  0.3526  0.0472
    9PEO   C0CF 5823   1.394   4.087   0.957  0.5506 -0.3692  0.7880
    9PEO   C0D0 5824   1.307   4.040   1.076  0.8100  0.9612 -0.1671
    9PEO   H0D1 5825   1.357   3.956   1.127  2.6149  0.4727 -2.5812
    9PEO   H0D2 5826   1.304   4.120   1.152 -0.4999  0.9243 -0.1577
    9PEO   O0D3 5827   1.174   4.009   1.035  0.0766 -0.0149  0.4464
    9PEO   H0D4 5828   0.981   3.956   1.065  0.0520  0.7204 -1.3220
    9PEO   H0D5 5829   1.043   4.071   1.191 -0.7170  1.1994 -1.3076
    9PEO   C0D6 5830   1.067   3.985   1.126 -0.5070  0.6146 -0.4752
    9PEO   C0D7 5831   1.101   3.855   1.206 -0.1712 -0.9071  0.9628
    9PEO   H0D8 5832   1.011   3.833   1.265 -0.3146 -1.7785  0.4427
    9PEO   H0D9 5833   1.119   3.769   1.140  0.6783  1.7216 -2.5108
    9PEO   O0DA 5834   1.214   3.864   1.294  0.1308 -0.9425 -0.1853
    9PEO   H0DB 5835   1.243   3.657   1.308 -0.1490 -0.2882  0.8854
    9PEO   H0DC 5836   1.145   3.732   1.444  1.0631 -0.7949  2.1049
    9PEO   C0DD 5837   1.226   3.746   1.372 -0.6538  0.0804  0.2501
    9PEO   C0DE 5838   1.353   3.747   1.463  0.1551  0.1989  0.0731
    9PEO   H0DF 5839   1.374   3.851   1.494 -3.1837  0.8094  0.6788
    9PEO   H0E0 5840   1.322   3.697   1.556  0.0494  1.6763  0.8669
    9PEO   O0E1 5841   1.466   3.701   1.392 -0.5735  0.3993 -0.3830
    9PEO   H0E2 5842   1.569   3.650   1.563 -1.0152  1.5443  0.9880
    9PEO   H0E3 5843   1.612   3.816   1.500 -0.8618 -0.4265  0.9717
    9PEO   C0E4 5844   1.584   3.713   1.473 -0.0503 -0.3528 -0.2307
    9PEO   C0E5 5845   1.708   3.658   1.402  0.1812 -0.3333 -0.2291
    9PEO   H0E6 5846   1.783   3.631   1.477 -0.2706  1.4203  0.8997
    9PEO   H0E7 5847   1.674   3.569   1.346 -1.5485  0.5675 -0.6847
    9PEO   O0E8 5848   1.770   3.758   1.310 -0.1300  0.3071 -0.5947
    9PEO   H0E9 5849   1.842   3.590   1.201 -0.2919  0.3837 -0.0065
    9PEO   H0EA 5850   1.965   3.718   1.254 -0.6817  1.5176 -2.1120
    9PEO   C0EB 5851   1.866   3.697   1.211 -1.2187  0.6552 -0.5379
    9PEO   C0EC 5852   1.865   3.761   1.070 -0.5286  0.5049 -0.5886
    9PEO   H0ED 5853   1.873   3.870   1.077  1.5763  0.3640 -0.3491
    9PEO   H0EE 5854   1.947   3.717   1.011  0.3963 -2.0507  2.2774
    9PEO   O0EF 5855   1.741   3.710   1.011 -0.2099 -0.1975  0.2767
    9PEO   H0F0 5856   1.595   3.854   0.945 -1.6084 -0.9710 -1.1131
    9PEO   H0F1 5857   1.638   3.827   1.126 -2.2495 -2.3695  1.4442
    9PEO   C0F2 5858   1.626   3.785   1.025 -0.3616  0.5939 -0.1787
    9PEO   C0F3 5859   1.519   3.679   1.052  0.4661 -0.1251  0.4517
    9PEO   H0F4 5860   1.572   3.584   1.066 -2.4689 -2.0901 -0.6504
    9PEO   H0F5 5861   1.450   3.704   1.134 -1.6279  0.1659 -1.2930
    9PEO   O0F6 5862   1.461   3.654   0.915  0.3209 -0.7582  0.0005
    9PEO   H0F7 5863   1.289   3.769   0.931  0.2933 -0.5435  2.7696
    9PEO   H0F8 5864   1.278   3.612   1.003 -2.7509 -0.0699 -2.0024
    9PEO   C0F9 5865   1.321   3.664   0.917  0.2463 -0.2100 -0.7193
    9PEO   C0FA 5866   1.266   3.619   0.783  0.6279 -0.0471 -0.1128
    9PEO   H0FB 5867   1.159   3.642   0.775  0.3658 -0.2386  2.1544
    9PEO   H0FC 5868   1.320   3.678   0.708 -2.2753 -1.3397 -3.4839
    9PEO   O0FD 5869   1.285   3.480   0.751  0.0890  0.3239 -0.2468
    9PEO   H0FE 5870   1.298   3.368   0.576  0.3179  0.2565  0.1325
    9PEO   H0FF 5871   1.292   3.540   0.549  0.4549 -1.3266 -0.7019
    9PEO   C100 5872   1.246   3.460   0.609 -0.2537 -0.1520  0.3756
    9PEO   C101 5873   1.090   3.460   0.592 -0.6620 -0.1828 -0.1112
    9PEO   H102 5874   1.058   3.565   0.592  1.9129  0.6753 -0.9732
    9PEO   H103 5875   1.063   3.422   0.493  1.6006 -0.1795 -0.7998
    9PEO   O104 5876   1.040   3.399   0.705 -0.2201  0.4870  0.4140
    9PEO   H105 5877   1.164   3.234   0.708  0.3457  1.2868 -1.0660
    9PEO   H106 5878   0.999   3.207   0.646 -2.8534  1.9355  0.0078
    9PEO   C107 5879   1.058   3.260   0.722  0.0637  0.0711 -0.8106
    9PEO   C108 5880   1.021   3.221   0.863  0.5005 -0.4665 -0.3156
    9PEO   H109 5881   1.104   3.162   0.905  0.9140  1.8175  2.3399
    9PEO   H10A 5882   1.008   3.314   0.920  1.1360 -1.0100  0.7539
    9PEO   O10B 5883   0.894   3.155   0.853 -0.0876 -0.0002  0.1903
    9PEO   H10C 5884   0.815   3.209   1.039  0.5895 -0.6618  1.4986
    9PEO   H10D 5885   0.886   3.042   1.010  0.4959  1.5307  0.6848
    9PEO   C10E 5886   0.826   3.124   0.970 -0.5144  0.4515 -0.0996
    9PEO   C10F 5887   0.681   3.080   0.920 -0.1680  0.3056 -0.1511
    9PEO   H110 5888   0.615   3.114   1.001  1.5360 -0.3232  1.5892
    9PEO   H111 5889   0.650   3.120   0.823  2.2877 -0.3796 -1.2801
    9PEO   O112 5890   0.667   2.936   0.920 -0.6519 -0.3886  0.4472
    9PEO   H113 5891   0.535   2.925   1.077  1.0996  1.8894  0.1065
    9PEO   H114 5892   0.706   2.899   1.110 -2.0324  1.4343  1.7981
    9PEO   C115 5893   0.626   2.877   1.037  0.0732  0.1682 -0.2753
    9PEO   C116 5894   0.611   2.724   1.015 -0.5074 -0.3811  0.1847
    9PEO   H117 5895   0.710   2.681   0.995 -0.6499 -1.6009  1.9350
    9PEO   H118 5896   0.573   2.676   1.106 -1.3117  0.5346  0.3568
    9PEO   O119 5897   0.525   2.687   0.904 -0.0888 -0.5986 -0.4987
    9PEO   H11A 5898   0.537   2.481   0.925 -0.6349  0.0274 -3.1376
    9PEO   H11B 5899   0.426   2.530   0.805  1.3231 -3.9329  0.0575
    9PEO   C11C 5900   0.460   2.557   0.907 -0.6861  0.7897 -0.2476
    9PEO   C11D 5901   0.344   2.570   0.995  0.4733  1.0559 -0.3544
    9PEO   H11E 5902   0.306   2.475   1.036  1.4712  0.5499 -0.5872
    9PEO   H11F 5903   0.366   2.643   1.074  0.7630 -1.3242  1.8816
    9PEO   O120 5904   0.239   2.620   0.910 -0.5635 -0.0932  0.4436
    9PEO   H121 5905   0.173   2.800   0.989  2.1700 -0.8162  0.3800
    9PEO   H122 5906   0.098   2.643   1.061 -0.4641 -2.1185 -1.2235
    9PEO   C123 5907   0.139   2.697   0.975  0.5666 -0.2963  0.3401
    9PEO   C124 5908   0.041   2.718   0.855 -0.0657  0.1537  0.1299
    9PEO   H125 5909  -0.038   2.793   0.873  0.8513  1.4543 -1.0739
    9PEO   H126 5910   0.099   2.761   0.772  1.5728  1.8923  2.0720
    9PEO   O127 5911  -0.025   2.597   0.812  0.2006 -0.2515 -0.1210
    9PEO   H128 5912  -0.220   2.627   0.896 -0.1221 -1.5527 -2.0146
    9PEO   H129 5913  -0.096   2.555   1.008 -0.5558  0.9644  0.8339
    9PEO   C12A 5914  -0.132   2.562   0.904  0.6000 -0.4046  0.3062
    9PEO   C12B 5915  -0.184   2.423   0.863 -0.1574  0.1482  0.3772
    9PEO   H12C 5916  -0.293   2.419   0.875  0.1298 -0.1825  3.8774
    9PEO   H12D 5917  -0.163   2.424   0.755  1.6389  1.7868  0.6886
    9PEO   O12E 5918  -0.120   2.324   0.934  0.6476  0.5794 -0.1039
    9PEO   H12F 5919  -0.137   2.189   0.788 -2.9373  1.0435 -0.7435
    9PEO   H130 5920  -0.270   2.188   0.890 -0.1198 -1.3390 -0.2362
    9PEO   C131 5921  -0.160   2.195   0.896 -0.1827 -0.4026  0.0185
    9PEO   C132 5922  -0.099   2.091   0.984 -0.8418 -0.6019 -0.3184
    9PEO   H133 5923  -0.088   1.994   0.932 -0.5096  0.8097 -3.0850
    9PEO   H134 5924   0.008   2.112   1.000 -0.0827 -3.1613 -1.4627
    9PEO   O135 5925  -0.178   2.071   1.109 -0.7202  0.3664 -0.4002
    9PEO   H136 5926  -0.076   1.888   1.121  0.1063  1.3483 -1.7019
    9PEO   H137 5927  -0.196   1.932   1.254 -0.7561  1.4468  0.5309
    9PEO   C138 5928  -0.117   1.967   1.186  0.2460 -0.4166  0.6739
    9PEO   C139 5929  -0.009   2.027   1.277 -0.4779 -0.1519  0.2618
    9PEO   H13A 5930  -0.024   2.133   1.300  1.4487  0.2069  0.0328
    9PEO   H13B 5931  -0.006   1.977   1.375 -0.3519  0.4374  0.5581
    9PEO   O13C 5932   0.118   2.000   1.213  0.4035 -0.0122 -0.2662
    9PEO   H13D 5933   0.182   1.840   1.340 -0.1555 -0.9701 -1.2389
    9PEO   H13E 5934   0.227   1.995   1.396  1.9668 -1.1833 -0.3585
    9PEO   C13F 5935   0.216   1.938   1.303 -0.7233 -0.5000 -0.5397
    9PEO   C140 5936   0.361   1.938   1.243 -0.3974 -0.4515  0.2800
    9PEO   H141 5937   0.437   1.908   1.316  1.7178  0.9757 -1.2272
    9PEO   H142 5938   0.360   1.864   1.162 -0.0068  0.4645 -0.5799
    9PEO   O143 5939   0.393   2.072   1.200 -0.5144  0.0997 -0.1516
    9PEO   H144 5940   0.388   2.123   1.000 -2.1516 -2.3887 -0.0115
    9PEO   H145 5941   0.475   1.977   1.017 -1.1894  1.5539 -2.2103
    9PEO   C146 5942   0.458   2.073   1.068 -0.0508  0.5749  0.1747
    9PEO   C147 5943   0.594   2.148   1.066  0.2475 -0.1510  0.4313
    9PEO   H148 5944   0.666   2.102   1.135  0.8062 -1.1595 -0.7884
    9PEO   H149 5945   0.639   2.142   0.966 -0.1135 -2.0884  0.3450
    9PEO   O14A 5946   0.581   2.287   1.098 -0.6322  0.3577 -1.0619
    9PEO   H14B 5947   0.733   2.436   1.156  1.4082 -0.3273  0.8221
    9PEO   H14C 5948   0.792   2.279   1.130  0.3573  0.2779  0.3726
    9PEO   C14D 5949   0.703   2.331   1.170  0.2695 -0.0500  0.6055
    9PEO   C14E 5950   0.680   2.299   1.323 -0.7976  0.1069 -0.2686
    9PEO   H14F 5951   0.642   2.196   1.333  0.8822 -0.5651 -0.4574
    9PEO   H150 5952   0.774   2.307   1.381 -1.5537 -2.4234  1.4804
    9PEO   O151 5953   0.588   2.392   1.373 -0.3536 -0.3213  0.0346
    9PEO   H152 5954   0.618   2.373   1.588 -0.4639 -0.4014  1.4522
    9PEO   H153 5955   0.504   2.262   1.505 -1.7493  0.9589 -0.3522
    9PEO   C154 5956   0.542   2.365   1.509  0.5171  0.1616  0.4198
    9PEO   C155 5957   0.444   2.480   1.533  0.1103  0.4844 -0.3140
    9PEO   H156 5958   0.438   2.497   1.642  3.2292 -1.0309  0.1903
    9PEO   H157 5959   0.474   2.577   1.489 -0.0929  1.2534  1.1852
    9PEO   O158 5960   0.319   2.438   1.489  0.3901  0.1993 -0.5312
    9PEO   H159 5961   0.365   2.352   1.296 -3.5557 -2.3873 -3.9492
    9PEO   H15A 5962   0.301   2.525   1.310 -1.7394  0.4344  0.3588
    9PEO   C15B 5963   0.298   2.422   1.347  0.6469 -0.1511 -0.8544
    9PEO   C15C 5964   0.144   2.377   1.326 -0.4269 -0.0683 -0.2817
    9PEO   H15D 5965   0.140   2.331   1.226  1.2615  0.3104 -0.5639
    9PEO   H15E 5966   0.102   2.305   1.397  0.4717  0.0649  0.3997
    9PEO   O15F 5967   0.063   2.487   1.342  0.1639  0.3984 -0.3486
    9PEO   H160 5968  -0.119   2.390   1.352 -0.4757  0.4873  0.6142
    9PEO   H161 5969  -0.094   2.485   1.193  0.4675  0.2865  0.0234
    9PEO   C162 5970  -0.077   2.478   1.301  0.3137 -0.2104  0.0211
    9PEO   C163 5971  -0.158   2.605   1.355  0.2795  0.1884  0.3492
    9PEO   H164 5972  -0.255   2.619   1.305 -0.3223 -1.3877  0.9991
    9PEO   H165 5973  -0.179   2.601   1.463 -1.9113 -0.8869 -0.0635
    9PEO   O166 5974  -0.083   2.723   1.333  0.6120  0.5281 -0.3022
    9PEO   H167 5975   0.068   2.687   1.498 -1.9453 -1.5401  1.0975
    9PEO   H168 5976  -0.053   2.802   1.541 -0.4663  2.5088 -0.9976
    9PEO   C169 5977   0.004   2.765   1.455 -0.3200 -0.5713  0.3136
    9PEO   C16A 5978   0.084   2.890   1.415 -1.1252  0.9052 -0.1628
    9PEO   H16B 5979   0.012   2.961   1.370 -0.5815  2.1135  0.8147
    9PEO   H16C 5980   0.145   2.929   1.497 -0.9480 -1.3243  0.8347
    9PEO   O16D 5981   0.173   2.859   1.302 -0.1247  0.0741 -0.3750
    9PEO   H16E 5982   0.293   2.921   1.154  0.1029 -0.1053  0.2629
    9PEO   H16F 5983   0.345   2.981   1.321  0.6723  0.8829 -1.6761
    9PEO   C170 5984   0.262   2.961   1.252 -0.5571  0.1716 -0.0512
    9PEO   C171 5985   0.184   3.092   1.219  0.2508 -0.2705 -0.4927
    9PEO   H172 5986   0.153   3.143   1.312  0.4970  0.6302 -0.8869
    9PEO   H173 5987   0.257   3.156   1.168  0.8297 -0.5091  0.0299
    9PEO   O174 5988   0.076   3.067   1.131  1.1708  0.2418  0.8266
    9PEO   H175 5989   0.037   3.256   1.061 -0.0116  0.0253 -0.0045
    9PEO   H176 5990  -0.032   3.236   1.219  0.6811 -1.1986  1.9404
    9PEO   C177 5991  -0.015   3.183   1.124  0.5058  0.4536  0.9426
    9PEO   C178 5992  -0.145   3.158   1.040  0.5981 -0.3798 -0.4906
    9PEO   H179 5993  -0.187   3.253   1.003 -1.1652  0.0372  2.2664
    9PEO   H17A 5994  -0.133   3.093   0.952 -2.5070 -1.3849 -0.2954
    9PEO   O17B 5995  -0.240   3.092   1.125  0.3176  0.5792 -0.1132
    9PEO   H17C 5996  -0.197   2.908   1.227  0.6650  0.3597  0.0947
    9PEO   H17D 5997  -0.156   2.902   1.062 -1.6227 -3.8337  1.0926
    9PEO   C17E 5998  -0.229   2.949   1.130 -0.4866 -0.3799  0.1394
    9PEO   C17F 5999  -0.364   2.890   1.081 -0.4334  0.2151  0.6325
    9PEO   H180 6000  -0.383   2.783   1.097 -3.3303  0.8208  1.8919
    9PEO   H181 6001  -0.437   2.936   1.150 -0.8676 -0.2762  0.5035
    9PEO   O182 6002  -0.389   2.927   0.945  0.4587 -0.0152  0.0803
    9PEO   H183 6003  -0.589   2.994   0.961  0.1472 -0.4048  2.3994
    9PEO   H184 6004  -0.566   2.818   0.933  2.8076 -0.4475  1.2866
    9PEO   C185 6005  -0.528   2.918   0.911 -0.5381  0.6251 -0.1365
    9PEO   C186 6006  -0.545   2.946   0.756 -1.2014  0.1361 -0.7004
    9PEO   H187 6007  -0.651   2.937   0.730 -0.7889  0.9194 -2.8523
    9PEO   H188 6008  -0.510   3.047   0.732  0.3996  0.1781  1.4983
    9PEO   O189 6009  -0.458   2.868   0.675  0.3019 -0.4546  0.1687
    9PEO   H18A 6010  -0.563   2.710   0.587 -0.8300  3.2941 -0.6480
    9PEO   H18B 6011  -0.512   2.684   0.759 -1.5598  2.4426  1.1594
    9PEO   C18C 6012  -0.484   2.728   0.662 -0.6173 -0.1560  0.1450
    9PEO   C18D 6013  -0.355   2.658   0.613  0.2711  0.3275 -0.3081
    9PEO   H18E 6014  -0.303   2.626   0.704 -0.3901  0.0524 -0.0267
    9PEO   H18F 6015  -0.387   2.568   0.560  3.2306 -1.4575  0.6760
    9PEO   O190 6016  -0.272   2.752   0.534  0.0699  0.7458 -0.1928
    9PEO   H191 6017  -0.107   2.742   0.666 -0.5119 -0.7787 -0.1862
    9PEO   H192 6018  -0.083   2.826   0.512 -0.8019  0.0439 -0.9691
    9PEO   C193 6019  -0.130   2.738   0.558  0.4143 -0.3339 -0.4092
    9PEO   C194 6020  -0.082   2.598   0.496 -0.8379 -0.2975 -0.0556
    9PEO   H195 6021   0.020   2.590   0.538 -1.6013 -1.7133  1.6599
    9PEO   H196 6022  -0.138   2.515   0.541  1.0328 -2.2846 -1.2330
    9PEO   O197 6023  -0.097   2.588   0.355  0.7275 -0.1990  0.0928
    9PEO   H198 6024  -0.062   2.784   0.294  1.6980 -0.1519 -0.0434
    9PEO   H199 6025  -0.082   2.652   0.165 -0.0111 -0.2740  0.0418
    9PEO   C19A 6026  -0.041   2.681   0.263  0.6058 -0.3446 -0.1909
    9PEO   C19B 6027   0.111   2.672   0.246  0.3871  0.3089 -0.9193
    9PEO   H19C 6028   0.144   2.569   0.224 -0.3364 -0.5711  1.7268
    9PEO   H19D 6029   0.152   2.741   0.170 -0.0483 -0.1380 -1.5745
    9PEO   O19E 6030   0.164   2.711   0.372 -0.4707 -0.0478 -0.4563
    9PEO   H19F 6031   0.346   2.803   0.314  2.7085  0.0253  1.0170
    9PEO   H1A0 6032   0.357   2.627   0.362 -0.7323 -0.4185  1.5644
    9PEO   C1A1 6033   0.308   2.724   0.380  0.1288  0.3493  0.0024
    9PEO   C1A2 6034   0.351   2.768   0.523 -0.1098  0.0274 -0.3554
    9PEO   H1A3 6035   0.343   2.673   0.578 -0.4586 -0.9640 -2.0440
    9PEO   H1A4 6036   0.455   2.804   0.527  0.6854 -1.8144 -2.2714
    9PEO   O1A5 6037   0.258   2.870   0.578 -0.3382 -0.0995 -0.2178
    9PEO   H1A6 6038   0.424   2.962   0.671  0.4693 -0.4664  0.9651
    9PEO   H1A7 6039   0.325   2.853   0.776 -0.6475 -0.6711 -1.2843
    9PEO   C1A8 6040   0.322   2.928   0.696 -0.1647  0.4461 -0.2699
    9PEO   C1A9 6041   0.232   3.038   0.751  0.6853  0.7902  0.5717
    9PEO   H1AA 6042   0.131   3.015   0.712  0.0079  0.2573  2.5048
    9PEO   H1AB 6043   0.240   3.038   0.861  0.8209 -0.9871  0.5911
    9PEO   O1AC 6044   0.257   3.165   0.707 -0.2286  0.2375  0.5824
    9PEO   H1AD 6045   0.225   3.191   0.497  0.0728 -0.1192  0.1137
    9PEO   H1AE 6046   0.386   3.131   0.543  0.2469 -0.7467  2.3773
    9PEO   C1AF 6047   0.304   3.198   0.573 -0.2076 -0.3610  0.4298
    9PEO   C1B0 6048   0.351   3.350   0.584 -0.4682  0.1016  0.1896
    9PEO   H1B1 6049   0.365   3.390   0.483  2.8444 -1.2286 -0.0353
    9PEO   H1B2 6050   0.286   3.408   0.651  1.8016 -0.7494  3.4354
    9PEO   O1B3 6051   0.485   3.337   0.636 -0.7440  0.2891  0.4200
    9PEO   H1B4 6052   0.632   3.443   0.715 -0.4002  0.2230 -0.2160
    9PEO   H1B5 6053   0.499   3.540   0.662 -3.3354 -3.4978  2.7874
    9PEO   C1B6 6054   0.564   3.458   0.630 -0.1807 -0.1359 -0.4573
    9PEO   C1B7 6055   0.661   3.482   0.507  0.1899  0.8287 -0.4885
    9PEO   H1B8 6056   0.730   3.565   0.531 -1.3676  1.9043  0.4397
    9PEO   H1B9 6057   0.719   3.390   0.490  1.7453  1.9729 -1.6731
    9PEO   O1BA 6058   0.573   3.519   0.396 -0.6902 -0.4228 -0.2064
    9PEO   H1BB 6059   0.728   3.611   0.282 -0.0453 -0.7188  3.2027
    9PEO   H1BC 6060   0.639   3.717   0.380  1.1037 -1.7543  2.7558
    9PEO   C1BD 6061   0.624   3.630   0.315 -0.7654 -0.0875  0.7797
    9PEO   C1BE 6062   0.538   3.661   0.190 -0.0396 -0.4839 -0.5760
    9PEO   H1BF 6063   0.607   3.696   0.112 -0.5965  0.5115 -0.6519
    9PEO   H1C0 6064   0.490   3.578   0.138  1.6232 -3.6751  2.5495
    9PEO   O1C1 6065   0.443   3.766   0.231 -0.5334 -0.8155  0.8787
    9PEO   H1C2 6066   0.349   3.829   0.041  1.0452  1.1510 -1.9920
    9PEO   H1C3 6067   0.502   3.907   0.081  0.5305  0.5733  1.8652
    9PEO   C1C4 6068   0.411   3.863   0.125 -0.1465 -0.4749 -0.3947
    9PEO   C1C5 6069   0.330   3.967   0.201  0.1081 -0.0301 -0.0858
    9PEO   H1C6 6070   0.263   4.013   0.127  2.8445 -0.8977 -3.3348
    9PEO   H1C7 6071   0.272   3.909   0.274 -0.2911 -0.7184 -0.9261
    9PEO   O1C8 6072   0.419   4.069   0.240  0.1148 -0.1715  0.0156
    9PEO   H1C9 6073   0.275   4.177   0.321 -1.3951 -1.2321 -1.2118
    9PEO   H1CA 6074   0.342   4.261   0.187  0.4731  0.3556  0.3596
    9PEO   C1CB 6075   0.371   4.198   0.272 -0.8240 -0.5879  0.1292
    9PEO   C1CC 6076   0.479   4.276   0.344 -1.0026  0.0240  0.0390
    9PEO   H1CD 6077   0.571   4.215   0.342 -1.9616 -1.4586 -2.1465
    9PEO   H1CE 6078   0.508   4.363   0.282  2.0662 -2.5837 -2.5578
    9PEO   O1CF 6079   0.439   4.312   0.481 -0.0338  0.4231  0.0428
    9PEO   H1D0 6080   0.631   4.331   0.575 -0.2481 -0.4241 -0.3558
    9PEO   H1D1 6081   0.564   4.173   0.578 -0.3756 -0.7563  0.6665
    9PEO   C1D2 6082   0.534   4.279   0.584 -0.0814 -0.6485  0.2249
    9PEO   C1D3 6083   0.479   4.309   0.724  0.0376  0.1129 -0.5046
    9PEO   H1D4 6084   0.396   4.240   0.743 -0.7191  1.0062 -0.5433
    9PEO   H1D5 6085   0.563   4.295   0.794 -0.4287 -2.4917 -0.3755
    9PEO   O1D6 6086   0.441   4.442   0.726 -0.7591 -0.7595 -0.1434
    9PEO   H1D7 6087   0.381   4.467   0.929  2.3281 -0.2602  0.7192
    9PEO   H1D8 6088   0.400   4.613   0.825  0.1176  0.1176 -0.2361
    9PEO   C1D9 6089   0.438   4.512   0.846  0.4667  0.2255 -0.3412
    9PEO   C1DA 6090   0.583   4.526   0.915  0.7702 -0.1051  0.1938
    9PEO   H1DB 6091   0.552   4.550   1.017  0.3305 -0.2247  0.0915
    9PEO   H1DC 6092   0.647   4.439   0.899  2.4185  1.3428 -1.5226
    9PEO   O1DD 6093   0.660   4.636   0.854 -0.5683 -0.2981  0.2428
    9PEO   H1DE 6094   0.834   4.747   0.835  0.6993 -1.5882 -1.3836
    9PEO   H1DF 6095   0.847   4.581   0.925  0.7152  0.0230 -0.6639
    9PEO   C1E0 6096   0.791   4.673   0.904  0.3194 -0.0223  0.1383
    9PEO   C1E1 6097   0.772   4.740   1.043 -0.1189 -0.3870  0.2814
    9PEO   H1E2 6098   0.874   4.772   1.069  0.4181 -1.1522 -0.8025
    9PEO   H1E3 6099   0.699   4.821   1.062  2.4897  1.8932  1.3276
    9PEO   O1E4 6100   0.746   4.627   1.138 -0.5069 -0.2599  0.3923
    9PEO   H1E5 6101   0.775   4.715   1.320 -0.1246 -1.3745  0.0710
    9PEO   H1E6 6102   0.915   4.638   1.260  0.3543 -0.1756 -1.9347
    9PEO   C1E7 6103   0.806   4.626   1.263  0.4217 -0.6602 -0.7670
    9PEO   C1E8 6104   0.771   4.487   1.325 -1.0352  0.1783 -0.2602
    9PEO   H1E9 6105   0.773   4.406   1.251  1.0846 -0.8508  0.8088
    9PEO   H1EA 6106   0.849   4.456   1.396 -0.6046 -0.2892 -0.9194
    9PEO   O1EB 6107   0.651   4.495   1.404  0.1870 -0.3001 -0.8462
    9PEO   H1EC 6108   0.498   4.386   1.501  1.4702  0.4751  1.6896
    9PEO   H1ED 6109   0.621   4.283   1.447  0.1016  1.1500  1.6892
    9PEO   C1EE 6110   0.569   4.375   1.417 -0.8735  0.0093 -0.3671
    9PEO   C1EF 6111   0.495   4.356   1.282  0.4543  0.0178  0.0285
    9PEO   H1F0 6112   0.389   4.329   1.296  0.3884  0.3842  0.2813
    9PEO   H1F1 6113   0.492   4.452   1.228 -0.3924  0.1950  0.3659
    9PEO   O1F2 6114   0.557   4.255   1.206 -0.4120 -0.5726 -0.4220
    9PEO   H1F3 6115   0.465   4.316   1.047 -1.0945  1.2483  3.9974
    9PEO   H1F4 6116   0.402   4.162   1.106  0.4706  1.0035  1.9267
    9PEO   C1F5 6117   0.494   4.218   1.087  0.7341  0.0639  0.2413
    9PEO   C1F6 6118   0.596   4.142   1.004 -0.7728 -0.1703  0.4581
    9PEO   H1F7 6119   0.632   4.052   1.055 -0.8894 -0.6692 -0.3276
    9PEO   H1F8 6120   0.546   4.105   0.913  1.1771  1.3160 -1.3339
    9PEO   O1F9 6121   0.707   4.225   0.971  0.1384 -0.2070  0.0365
    9PEO   H1FA 6122   0.794   4.100   0.821  1.1261  1.0961 -0.1491
    9PEO   H1FB 6123   0.835   4.070   0.993  1.1278 -3.0392 -2.9223
    9PEO   C1FC 6124   0.821   4.148   0.916  0.4661  0.4322  0.3917
    9PEO   C1FD 6125   0.938   4.242   0.888  0.3189 -0.8749  0.3049
    9PEO   H1FE 6126   0.951   4.323   0.960  1.6240 -1.1390  0.4021
    9PEO   H1FF 6127   1.033   4.189   0.905  2.2024  2.0491 -0.3792
    9PEO   O200 6128   0.932   4.292   0.754  0.8036 -0.0668 -0.3154
    9PEO   H201 6129   1.100   4.406   0.716 -0.2322  2.0781 -0.7754
    9PEO   H202 6130   0.984   4.486   0.817  0.3146  1.2327 -0.3097
    9PEO   C203 6131   0.992   4.420   0.730 -0.3757  0.2951  0.3228
    9PEO   C204 6132   0.919   4.494   0.608  0.0336 -0.1706  0.0043
    9PEO   H205 6133   0.810   4.488   0.620  0.1580 -0.0908  1.3283
    9PEO   H206 6134   0.951   4.598   0.595  0.0397 -0.4132 -2.4957
    9PEO   O207 6135   0.956   4.427   0.484 -0.2656  0.5300  0.6749
    9PEO   H208 6136   0.852   4.560   0.351 -3.9027  0.9989  1.1245
    9PEO   H209 6137   0.755   4.434   0.417  0.6067 -0.0781  0.4558
    9PEO   C20A 6138   0.857   4.454   0.379  0.3015  0.7130  0.0313
    9PEO   C20B 6139   0.887   4.371   0.250  0.6178  0.3866 -0.0117
    9PEO   H20C 6140   0.916   4.266   0.265 -0.5274 -0.0931 -0.9598
    9PEO   H20D 6141   0.791   4.361   0.197  1.0885 -0.3104 -0.7504
    9PEO   O20E 6142   0.984   4.436   0.158 -0.1608 -0.0696 -0.0653
    9PEO   H20F 6143   1.033   4.564   0.011  0.2857 -0.6800  0.6656
    9PEO   H210 6144   0.880   4.614   0.111 -0.1854 -0.4474  1.8506
    9PEO   C211 6145   0.940   4.536   0.062 -0.2810  0.4231  0.2790
    9PEO   C212 6146   0.854   4.466  -0.044  0.2329  0.8970  0.6036
    9PEO   H213 6147   0.758   4.436  -0.000 -0.7384 -0.0832 -2.0136
    9PEO   H214 6148   0.837   4.529  -0.133 -1.2411  1.5489  1.3159
    9PEO   O215 6149   0.926   4.349  -0.084 -0.0536 -0.4588  0.2660
    9PEO   H216 6150   1.099   4.290  -0.193 -1.0434 -1.1743 -1.1984
    9PEO   H217 6151   1.048   4.465  -0.207  0.1451  0.4421 -1.0058
    9PEO   C218 6152   1.016   4.362  -0.189  0.4077  0.5241  0.0047
    9PEO   C219 6153   0.927   4.334  -0.310 -1.0059 -0.4564  0.7214
    9PEO   H21A 6154   0.829   4.381  -0.298 -1.1888 -0.6143 -0.0895
    9PEO   H21B 6155   0.965   4.374  -0.405  0.9037  0.5896  1.8660
    9PEO   O21C 6156   0.907   4.192  -0.326 -0.1497 -0.4432  0.9822
    9PEO   H21D 6157   0.711   4.205  -0.399 -1.7210  2.4038  3.2978
    9PEO   H21E 6158   0.724   4.154  -0.222 -0.2558 -0.7208  0.6374
    9PEO   C21F 6159   0.763   4.144  -0.324 -0.4708 -0.2426  0.5054
    9PEO   C220 6160   0.769   3.987  -0.367 -0.8023  0.7803 -1.2226
    9PEO   H221 6161   0.665   3.969  -0.399 -0.8609 -2.2191  0.3768
    9PEO   H222 6162   0.834   3.965  -0.453 -2.4790 -2.5256 -1.8018
    9PEO   O223 6163   0.798   3.906  -0.259  0.4376  0.0496  0.3073
    9PEO   H224 6164   0.940   4.005  -0.136  0.2914 -0.7463  0.4148
    9PEO   H225 6165   1.009   3.882  -0.248  1.7006  1.8926 -0.7785
    9PEO   C226 6166   0.923   3.908  -0.185  0.9619 -0.2569 -0.8270
    9PEO   C227 6167   0.904   3.797  -0.076  0.2060 -0.4393 -0.6847
    9PEO   H228 6168   0.851   3.713  -0.122 -0.9847 -0.1215  0.0676
    9PEO   H229 6169   0.994   3.763  -0.023  0.6075  4.2102  2.1827
    9PEO   O22A 6170   0.809   3.846   0.016  0.4150 -0.6222 -0.7005
    9PEO   H22B 6171   0.811   4.057   0.030  2.6566  0.9784  0.2424
    9PEO   H22C 6172   0.939   3.980   0.119  0.1293 -0.0742 -1.4858
    9PEO   C22D 6173   0.833   3.968   0.091 -0.3531  0.0672  0.1524
    9PEO   C22E 6174   0.755   3.977   0.221 -0.0233 -0.1324 -0.8949
    9PEO   H22F 6175   0.751   4.083   0.248  1.2240 -0.4037  0.4700
    9PEO   H230 6176   0.655   3.931   0.216 -0.9492  1.7903 -1.1870
    9PEO   O231 6177   0.839   3.919   0.320  0.2721 -0.1093  0.0417
    9PEO   H232 6178   0.694   3.898   0.464 -0.5534 -1.3543 -1.5087
    9PEO   H233 6179   0.817   4.040   0.486  2.2414 -0.6206  1.2277
    9PEO   C234 6180   0.797   3.937   0.453 -1.0335  0.3703 -0.3160
    9PEO   C235 6181   0.885   3.852   0.540 -0.0153 -0.0606  0.2750
    9PEO   H236 6182   0.839   3.849   0.639  0.5023  0.6580  0.5465
    9PEO   H237 6183   0.893   3.751   0.498 -0.6928  0.0841 -0.2191
    9PEO   O238 6184   1.018   3.902   0.562 -0.0483 -0.2403 -0.3070
    9PEO   H239 6185   0.981   4.010   0.735  1.4762  0.3098  1.2324
    9PEO   H23A 6186   0.972   4.101   0.593  2.9625  1.9254 -1.9181
    9PEO   C23B 6187   1.035   4.024   0.640  0.0411  0.7459  0.4399
    9PEO   C23C 6188   1.189   4.065   0.655  0.9521  0.2079  0.1424
    9PEO   H23D 6189   1.186   4.144   0.732  0.2030 -0.6429  1.0115
    9PEO   H23E 6190   1.236   3.973   0.693 -0.3051 -0.6062 -0.2381
    9PEO   O23F 6191   1.246   4.101   0.528 -0.5335  0.6309  0.1446
    9PEO   H240 6192   1.148   4.279   0.509  2.2068 -0.1989  0.9046
    9PEO   H241 6193   1.110   4.156   0.381  0.1275  0.1836 -0.3200
    9PEO   C242 6194   1.188   4.199   0.446  0.3281 -0.2897 -0.2459
    9PEO   C243 6195   1.302   4.261   0.347 -0.2298  0.3516 -0.2514
    9PEO   H244 6196   1.264   4.350   0.294 -4.7590 -0.0030  1.8776
    9PEO   H245 6197   1.391   4.283   0.407 -2.2389 -0.9353  3.5768
    9PEO   O246 6198   1.332   4.168   0.241 -0.9071 -0.2453  0.2454
    9PEO   H247 6199   1.215   4.178   0.064 -0.2606 -0.1068  0.5171
    9PEO   H248 6200   1.131   4.112   0.212 -1.2417 -0.0135 -0.9157
    9PEO   C249 6201   1.226   4.120   0.158 -0.2585  0.3454  0.7987
    9PEO   C24A 6202   1.278   3.981   0.113  0.1083  1.1499 -0.2634
    9PEO   H24B 6203   1.226   3.944   0.024  0.8468  1.0533 -0.6702
    9PEO   H24C 6204   1.381   3.991   0.075 -0.5663  3.6213 -1.6445
    9PEO   O24D 6205   1.274   3.880   0.219 -0.0742  0.2540  0.3206
    9PEO   H24E 6206   1.087   3.823   0.163  1.9582 -1.7486 -0.4980
    9PEO   H24F 6207   1.099   3.910   0.324  0.5738 -0.0387  2.1164
    9PEO   C250 6208   1.143   3.835   0.257 -0.3971  0.5841  0.7440
    9PEO   C251 6209   1.161   3.698   0.328  0.3012 -0.0293 -0.1151
    9PEO   H252 6210   1.252   3.700   0.390 -0.0400 -0.5917  0.4210
    9PEO   H253 6211   1.073   3.678   0.390  0.2153 -1.4824 -0.6767
    9PEO   O254 6212   1.155   3.588   0.235 -0.2257  0.6093 -0.3626
    9PEO   H255 6213   0.951   3.617   0.203 -0.8128 -1.9624 -0.7157
    9PEO   H256 6214   0.995   3.497   0.329  0.1727  1.4023 -0.2363
    9PEO   C257 6215   1.021   3.537   0.231  1.0049 -0.4835 -0.8386
    9PEO   C258 6216   1.013   3.426   0.127  0.3829 -0.2658 -0.2585
    9PEO   H259 6217   0.917   3.401   0.079  0.1516 -0.9051  0.5139
    9PEO   H25A 6218   1.085   3.462   0.052  0.4261 -1.1147 -0.6452
    9PEO   O25B 6219   1.071   3.313   0.195 -0.5721  0.1533  0.8233
    9PEO   H25C 6220   1.182   3.207   0.056  4.5273 -0.2696  4.7174
    9PEO   H25D 6221   1.019   3.182   0.027  2.9339 -0.7470 -2.3743
    9PEO   C25E 6222   1.089   3.190   0.112  0.8556 -0.0073 -0.6237
    9PEO   C25F 6223   1.099   3.070   0.207  0.3096  0.3815  0.4623
    9PEO   H260 6224   1.025   3.064   0.289  1.5657  0.4839  1.6488
    9PEO   H261 6225   1.090   2.975   0.153  1.3639  0.5786 -0.0774
    9PEO   O262 6226   1.227   3.076   0.264 -0.0353  0.3714 -0.0369
    9PEO   H263 6227   1.273   2.875   0.266  0.5258 -1.6656  1.3181
    9PEO   H264 6228   1.193   2.931   0.423  0.6385  1.8877  0.8012
    9PEO   C265 6229   1.262   2.955   0.341  0.4919 -0.3569 -0.0298
    9PEO   C266 6230   1.392   2.978   0.413 -0.0732  0.4063  0.3035
    9PEO   H267 6231   1.438   2.880   0.429 -1.2556 -0.7341 -2.6752
    9PEO   H268 6232   1.458   3.042   0.352  0.9510  0.3795  1.3363
    9PEO   O269 6233   1.370   3.034   0.544  0.0005 -0.6107 -0.1622
    9PEO   H26A 6234   1.514   3.161   0.509 -1.5231 -0.3646 -0.1803
    9PEO   H26B 6235   1.571   3.011   0.599  0.8378  0.9750  0.0759
    9PEO   C26C 6236   1.495   3.090   0.590  0.0484  0.3182  0.8319
    9PEO   C26D 6237   1.472   3.171   0.719  0.6874 -0.5299 -0.6877
    9PEO   H26E 6238   1.555   3.243   0.717  1.0987 -1.0015 -0.8055
    9PEO   H26F 6239   1.372   3.218   0.720 -0.1968 -2.3339 -0.6852
    9PEO   O270 6240   1.491   3.088   0.829  0.6252 -0.0996 -0.4753
    9PEO   H271 6241   1.446   3.072   1.036 -1.0934 -0.4542  0.8106
    9PEO   H272 6242   1.348   3.182   0.934  0.7440  1.2739 -0.5194
    9PEO   C273 6243   1.449   3.144   0.953 -0.1815 -0.8272  0.5145
    9PEO   C274 6244   1.550   3.258   0.983 -0.1031 -0.3216 -0.1836
    9PEO   H275 6245   1.550   3.330   0.899  0.2234 -0.8307 -0.6241
    9PEO   H276 6246   1.501   3.314   1.064  0.5707 -0.0778  0.0561
    9PEO   O277 6247   1.678   3.208   1.022 -0.5883  0.2992 -0.0357
    9PEO   H278 6248   1.797   3.104   1.174  0.3873  2.0792  0.8779
    9PEO   H279 6249   1.631   3.037   1.137 -1.6778  1.1812  2.3702
    9PEO   C27A 6250   1.694   3.127   1.143  0.0504  0.1859  0.4514
    9PEO   C27B 6251   1.651   3.222   1.264  0.7777 -0.4452  0.5645
    9PEO   H27C 6252   1.710   3.186   1.349  0.2294 -0.5243  0.9134
    9PEO   H27D 6253   1.673   3.329   1.245 -0.1968  0.5373  4.1845
    9PEO   O27E 6254   1.511   3.204   1.292 -0.2142  0.0138  0.6496
    9PEO   H27F 6255   1.570   3.274   1.482 -0.2894 -0.5500  0.5835
    9PEO   H280 6256   1.406   3.209   1.476 -0.5037 -0.8990 -0.7461
    9PEO   C281 6257   1.482   3.262   1.417  0.0419 -0.6508  0.1526
    9PEO   C282 6258   1.437   3.405   1.386  0.6095  0.0043 -0.4456
    9PEO   H283 6259   1.462   3.466   1.475  0.9649 -1.3877  0.4447
    9PEO   H284 6260   1.497   3.438   1.300  1.5115  0.2411  0.2477
    9PEO   O285 6261   1.298   3.388   1.354  0.2221  0.6301  0.5981
    9PEO   H286 6262   1.308   3.313   1.154 -1.5461  0.6845 -0.2922
    9PEO   H287 6263   1.281   3.490   1.165 -1.2148  0.6890 -0.6377
    9PEO   C288 6264   1.262   3.393   1.213  0.1843  1.0270  0.6763
    9PEO   C289 6265   1.111   3.365   1.218 -0.0172 -0.6700  0.7111
    9PEO   H28A 6266   1.080   3.333   1.118 -0.9745  0.7827  0.5007
    9PEO   H28B 6267   1.088   3.281   1.284 -3.6735 -0.9768 -0.7610
    9PEO   O28C 6268   1.039   3.489   1.250 -0.1949  0.1275 -0.5460
    9PEO   H28D 6269   0.899   3.441   1.365  0.4279  0.3996  0.7684
    9PEO   H28E 6270   0.868   3.393   1.197  1.2371  0.1506  0.5038
    9PEO   C28F 6271   0.906   3.475   1.261  0.6250  0.2576  0.7351
    9PEO   C290 6272   0.837   3.604   1.226  0.5034 -0.3360 -0.4118
    9PEO   H291 6273   0.728   3.606   1.243  0.5605  2.6753  0.1252
    9PEO   H292 6274   0.875   3.682   1.293  0.7805 -0.0076 -0.9415
    9PEO   O293 6275   0.867   3.639   1.095  0.1236  0.1456 -0.6940
    9PEO   H294 6276   0.670   3.570   1.016 -0.6271 -0.7463 -1.8582
    9PEO   H295 6277   0.815   3.474   0.973  1.7297 -0.6637  0.9731
    9PEO   C296 6278   0.778   3.575   0.994 -0.0526 -1.2191  0.6373
    9PEO   C297 6279   0.810   3.646   0.852 -0.0396 -0.1390 -0.8963
    9PEO   H298 6280   0.885   3.724   0.872  0.3837 -1.2987  2.6880
    9PEO   H299 6281   0.862   3.578   0.782  0.1536  1.1813 -2.0904
    9PEO   O29A 6282   0.697   3.696   0.780 -0.0675 -0.1258  0.0324
    9PEO   H29B 6283   0.705   3.886   0.829 -2.4526  2.0330 -0.4899
    9PEO   H29C 6284   0.612   3.791   0.948 -0.8789  0.7524  0.1500
    9PEO   C29D 6285   0.631   3.806   0.841 -0.1521 -0.1358  0.1384
    9PEO   C29E 6286   0.494   3.829   0.771 -1.0782 -0.2031 -0.8899
    9PEO   H29F 6287   0.442   3.733   0.755 -1.4714 -0.0620 -0.4681
    9PEO   H2A0 6288   0.426   3.891   0.831 -0.9061 -1.3741  0.5993
    9PEO   O2A1 6289   0.532   3.894   0.649  0.9337 -0.1185  0.0362
    9PEO   H2A2 6290   0.391   3.823   0.512  1.9276 -0.1563 -0.7684
    9PEO   H2A3 6291   0.472   3.982   0.473  1.4250 -0.5604  0.0149
    9PEO   C2A4 6292   0.425   3.920   0.551 -0.7416  0.6589 -0.2488
    9PEO   C2A5 6293   0.306   4.001   0.604  0.3974 -0.2088  0.0448
    9PEO   H2A6 6294   0.329   4.078   0.679 -1.7461  0.5914 -0.0659
    9PEO   H2A7 6295   0.262   4.048   0.515  1.4218  0.0652 -0.3350
    9PEO   O2A8 6296   0.215   3.909   0.654  0.1323  0.3351  0.6879
    9PEO   H2A9 6297   0.086   4.059   0.669  1.3829  0.7842 -3.6222
    9PEO   H2AA 6298   0.007   3.894   0.713  0.8634  1.3396  1.6556
    9PEO   C2AB 6299   0.080   3.950   0.652  0.2574  0.2127 -0.1842
    9PEO   C2AC 6300   0.024   3.920   0.513 -0.1299 -0.6437 -0.4247
    9PEO   H2AD 6301   0.086   3.839   0.471  1.5265 -0.0522  0.7819
    9PEO   H2AE 6302  -0.083   3.895   0.526 -0.1706 -0.2900 -0.0501
    9PEO   O2AF 6303   0.039   4.041   0.437  0.3305 -0.0635 -0.2090
    9PEO   H2B0 6304   0.049   3.958   0.238 -0.7034 -0.8357  0.5594
    9PEO   H2B1 6305   0.078   4.132   0.260 -0.1168 -0.3512 -0.9823
    9PEO   C2B2 6306   0.016   4.047   0.292 -0.1743 -0.0674 -0.3438
    9PEO   C2B3 6307  -0.136   4.072   0.255  0.1988 -0.2095 -0.3788
    9PEO   H2B4 6308  -0.164   4.161   0.314  1.9987 -1.7732  3.1649
    9PEO   H2B5 6309  -0.150   4.087   0.147 -2.8164  0.2707 -0.0012
    9PEO   O2B6 6310  -0.211   3.953   0.290 -0.0533 -0.1121  0.1152
    9PEO   H2B7 6311  -0.388   4.012   0.175 -4.0026 -1.0975  0.6862
    9PEO   H2B8 6312  -0.379   4.065   0.351  1.8329  1.5890 -0.1166
    9PEO   C2B9 6313  -0.355   3.987   0.276  0.1190  0.8841  0.0163
    9PEO   C2BA 6314  -0.447   3.867   0.307 -0.6438 -0.3117 -0.1698
    9PEO   H2BB 6315  -0.547   3.883   0.264 -1.4203  3.0081  2.4535
    9PEO   H2BC 6316  -0.401   3.778   0.260  0.6501 -0.3907  1.1851
    9PEO   O2BD 6317  -0.458   3.835   0.449 -0.1693 -0.5155 -0.0113
    9PEO   H2BE 6318  -0.412   3.749   0.452  0.5848 -0.1592 -0.9152
   10PEO   H001 6319   2.970   5.364   3.659 -0.8436 -0.9444 -1.5027
   10PEO   H002 6320   3.069   5.496   3.604  0.7198 -0.6114  2.0811
   10PEO   H003 6321   2.929   5.451   3.508 -1.3834 -0.7446 -0.3764
   10PEO   C004 6322   3.011   5.410   3.568 -0.4166  1.0593 -0.3748
   10PEO   C005 6323   3.097   5.310   3.485 -0.5943 -0.2020  0.4956
   10PEO   H006 6324   3.037   5.230   3.440  0.7010  0.0493 -1.8280
   10PEO   H007 6325   3.141   5.357   3.396 -3.5403  0.7953 -0.5893
   10PEO   O008 6326   3.199   5.264   3.572 -0.7543 -0.3929 -0.3289
   10PEO   H009 6327   3.326   5.216   3.413 -1.4559 -1.2708 -1.6772
   10PEO   H00A 6328   3.210   5.088   3.463  0.8015 -1.9764  0.8273
   10PEO   C00B 6329   3.275   5.169   3.499 -0.8186  0.0493 -0.5321
   10PEO   C00C 6330   3.382   5.112   3.588  0.5958  0.1132 -0.1773
   10PEO   H00D 6331   3.335   5.092   3.686 -0.4381 -0.0783 -0.6947
   10PEO   H00E 6332   3.402   5.013   3.544 -2.3292 -1.6371  2.0287
   10PEO   O00F 6333   3.493   5.197   3.586  0.5834 -0.2132 -0.3542
   10PEO   H010 6334   3.657   5.081   3.618  1.2364 -0.5303  0.9531
   10PEO   H011 6335   3.559   5.115   3.769  1.8939  0.2389  1.1333
   10PEO   C012 6336   3.597   5.154   3.674  0.0867 -0.6980 -0.0313
   10PEO   C013 6337   3.686   5.269   3.714 -0.5464  0.2815 -0.1394
   10PEO   H014 6338   3.762   5.232   3.785 -0.3133 -0.8327 -0.9504
   10PEO   H015 6339   3.735   5.303   3.622  1.6937  0.1920  0.9526
   10PEO   O016 6340   3.601   5.375   3.766  0.1232  0.5715  0.5879
   10PEO   H017 6341   3.628   5.585   3.832  1.4761  0.2614  1.4116
   10PEO   H018 6342   3.745   5.516   3.703  1.9795 -0.8599  0.5034
   10PEO   C019 6343   3.680   5.498   3.789  0.7324  0.5287 -0.1043
   10PEO   C01A 6344   3.776   5.471   3.908 -0.3812 -0.0472  0.0871
   10PEO   H01B 6345   3.841   5.384   3.889 -1.6526 -0.8877 -0.5586
   10PEO   H01C 6346   3.844   5.556   3.917 -2.3515  2.0462 -2.9089
   10PEO   O01D 6347   3.700   5.454   4.025 -0.0823  0.3183 -0.0336
   10PEO   H01E 6348   3.653   5.260   3.971  0.6388  0.3588 -1.0146
   10PEO   H01F 6349   3.547   5.329   4.104 -0.6011  0.4807  0.9317
   10PEO   C020 6350   3.649   5.320   4.063 -1.2140 -0.4998 -0.4900
   10PEO   C021 6351   3.741   5.264   4.169  0.3490 -0.1673 -0.0536
   10PEO   H022 6352   3.726   5.314   4.266  2.4942  1.4148 -0.4706
   10PEO   H023 6353   3.705   5.160   4.175  1.6620 -0.7347 -1.2951
   10PEO   O024 6354   3.873   5.260   4.127 -0.8433 -0.8786 -0.1764
   10PEO   H025 6355   3.895   5.059   4.171 -0.9591  0.8612 -1.3931
   10PEO   H026 6356   3.986   5.174   4.290  0.6722  0.6699 -0.4150
   10PEO   C027 6357   3.953   5.151   4.188  0.6209 -0.2988 -0.1893
   10PEO   C028 6358   4.081   5.140   4.102  0.2570  0.0963  0.5694
   10PEO   H029 6359   4.148   5.054   4.121 -0.3591 -0.4352  0.4079
   10PEO   H02A 6360   4.054   5.144   3.995 -0.9100 -0.4953  0.8176
   10PEO   O02B 6361   4.157   5.257   4.126  0.4955  0.3821 -0.0840
   10PEO   H02C 6362   4.280   5.281   3.962  2.8835  2.6959  0.5863
   10PEO   H02D 6363   4.355   5.173   4.088  2.8292  1.7550 -1.1994
   10PEO   C02E 6364   4.289   5.259   4.069 -0.2872 -0.0753  0.4501
   10PEO   C02F 6365   4.367   5.382   4.120  0.1862  0.0424 -0.2510
   10PEO   H030 6366   4.457   5.383   4.056  1.9545 -3.4891  1.8977
   10PEO   H031 6367   4.331   5.485   4.107  0.0995 -0.1355 -1.4940
   10PEO   O032 6368   4.406   5.367   4.261 -0.3134 -0.2953  0.1237
   10PEO   H033 6369   4.475   5.552   4.335 -0.1236 -0.3070  2.3187
   10PEO   H034 6370   4.598   5.447   4.253 -0.0390 -4.4543  0.0706
   10PEO   C035 6371   4.509   5.449   4.317 -0.6465 -0.0806 -0.5529
   10PEO   C036 6372   4.539   5.395   4.458 -0.4368 -0.1254 -0.1251
   10PEO   H037 6373   4.595   5.484   4.491  0.8323 -1.0319  0.2409
   10PEO   H038 6374   4.449   5.389   4.520  0.6840 -0.7409  1.5145
   10PEO   O039 6375   4.617   5.268   4.451  0.3131  0.2949 -0.0969
   10PEO   H03A 6376   4.535   5.144   4.301  0.7492  0.3038 -0.3339
   10PEO   H03B 6377   4.441   5.148   4.456  0.5682 -1.5977  2.6682
   10PEO   C03C 6378   4.541   5.151   4.410 -0.6580  0.3210 -0.2355
   10PEO   C03D 6379   4.616   5.023   4.459 -0.6138 -0.7367  0.7629
   10PEO   H03E 6380   4.629   5.014   4.568  3.8226 -0.8625  0.3931
   10PEO   H03F 6381   4.557   4.941   4.416 -1.1515  0.8216 -1.6670
   10PEO   O040 6382   4.748   5.017   4.397 -0.0468  0.6493  0.3378
   10PEO   H041 6383   4.846   4.884   4.528  0.5843 -0.1326 -0.2146
   10PEO   H042 6384   4.864   5.067   4.548 -0.1413  1.5590 -2.1284
   10PEO   C043 6385   4.859   4.982   4.478 -0.7436  0.0207 -0.2827
   10PEO   C044 6386   4.989   4.982   4.394 -0.5981  0.4633  0.6723
   10PEO   H045 6387   5.005   5.086   4.361  0.2854 -0.3610 -1.7006
   10PEO   H046 6388   5.074   4.951   4.457 -0.9985  2.8521  2.5785
   10PEO   O047 6389   4.971   4.889   4.288 -0.0255 -0.3928  0.2312
   10PEO   H048 6390   5.162   4.902   4.208  0.1089  0.0899 -1.4840
   10PEO   H049 6391   5.051   5.006   4.120 -0.4033 -0.7926 -0.2911
   10PEO   C04A 6392   5.059   4.909   4.169 -0.6659 -0.4932  0.3502
   10PEO   C04B 6393   5.034   4.803   4.057 -0.7897 -0.1001  0.7951
   10PEO   H04C 6394   4.929   4.813   4.026 -0.3521  0.4784 -0.5912
   10PEO   H04D 6395   5.112   4.817   3.980 -1.7053  1.0177  0.0379
   10PEO   O04E 6396   5.065   4.669   4.108  0.0258 -1.2682 -0.1141
   10PEO   H04F 6397   5.124   4.600   3.911  0.3886  1.7800  0.3078
   10PEO   H050 6398   4.967   4.554   3.967  0.7288  0.0666 -2.2633
   10PEO   C051 6399   5.071   4.565   4.001  0.2578 -0.4974 -0.5837
   10PEO   C052 6400   5.145   4.445   4.051 -0.1350  0.2145 -0.4387
   10PEO   H053 6401   5.102   4.407   4.144  3.2173 -3.1479 -0.0257
   10PEO   H054 6402   5.137   4.373   3.968  1.5581 -1.2478  0.5933
   10PEO   O055 6403   5.288   4.457   4.064 -0.0057 -0.0906 -0.4010
   10PEO   H056 6404   5.296   4.422   4.283  0.1266  0.3585  0.7904
   10PEO   H057 6405   5.299   4.589   4.220 -1.9705  0.3369 -3.5979
   10PEO   C058 6406   5.333   4.486   4.203 -0.4514  0.0212  0.2433
   10PEO   C059 6407   5.488   4.490   4.193 -0.3691  0.3907  0.2021
   10PEO   H05A 6408   5.508   4.556   4.108 -0.7118  0.1781 -0.0438
   10PEO   H05B 6409   5.534   4.533   4.284 -1.6893 -2.0656  2.1583
   10PEO   O05C 6410   5.551   4.357   4.175 -0.7374  0.2235 -0.6243
   10PEO   H05D 6411   5.705   4.432   4.064  1.2364 -3.4970 -3.1797
   10PEO   H05E 6412   5.730   4.260   4.109  0.1281 -0.4575  1.5291
   10PEO   C05F 6413   5.693   4.358   4.145  0.8011  0.1990  0.5007
   10PEO   C060 6414   5.785   4.409   4.265  0.0105  0.6572  0.4369
   10PEO   H061 6415   5.741   4.370   4.358  1.0498 -0.1132  0.6216
   10PEO   H062 6416   5.889   4.383   4.240  0.1749  0.4203  1.3447
   10PEO   O063 6417   5.772   4.557   4.256  0.5759  0.0264 -0.0225
   10PEO   H064 6418   5.807   4.750   4.319 -0.8335 -0.5316 -0.8418
   10PEO   H065 6419   5.934   4.628   4.346  0.0795 -1.6694  0.7273
   10PEO   C066 6420   5.825   4.645   4.348  0.3365  0.1060  0.8876
   10PEO   C067 6421   5.771   4.624   4.489 -0.2525 -1.0322  0.3100
   10PEO   H068 6422   5.797   4.532   4.543  0.4577  0.8145  3.3711
   10PEO   H069 6423   5.808   4.710   4.546  0.8427 -0.3019 -1.3969
   10PEO   O06A 6424   5.633   4.643   4.467  0.2838  0.0816 -0.4139
   10PEO   H06B 6425   5.582   4.729   4.655 -0.7421 -0.6580 -0.1414
   10PEO   H06C 6426   5.533   4.566   4.639  0.4834  0.6924  0.8660
   10PEO   C06D 6427   5.546   4.658   4.579 -0.4718 -0.1707 -0.7360
   10PEO   C06E 6428   5.403   4.706   4.539 -0.2491  0.1384 -0.6384
   10PEO   H06F 6429   5.352   4.777   4.607  0.1835 -0.9684  0.8961
   10PEO   H070 6430   5.424   4.770   4.452 -0.4968 -0.4964 -1.1644
   10PEO   O071 6431   5.318   4.596   4.510  0.1287 -0.6017  0.6346
   10PEO   H072 6432   5.121   4.554   4.432 -1.5877  1.3525 -0.5502
   10PEO   H073 6433   5.177   4.715   4.396  0.5101  1.3149  1.3275
   10PEO   C074 6434   5.179   4.638   4.475  0.0172 -0.0207  0.0660
   10PEO   C075 6435   5.110   4.687   4.604  0.1028 -0.0784 -0.2429
   10PEO   H076 6436   5.168   4.769   4.649  0.6755 -0.0828 -0.9658
   10PEO   H077 6437   5.011   4.734   4.591 -2.1625 -3.6064  2.2978
   10PEO   O078 6438   5.092   4.565   4.676 -0.1976 -0.1644 -0.4431
   10PEO   H079 6439   5.016   4.484   4.856  1.1647 -0.8035  1.1220
   10PEO   H07A 6440   5.017   4.661   4.845  1.0863  0.0055 -0.1515
   10PEO   C07B 6441   5.074   4.570   4.820  0.2611 -0.6007  0.1038
   10PEO   C07C 6442   5.217   4.577   4.884  0.7211 -0.1822 -0.3795
   10PEO   H07D 6443   5.207   4.526   4.981  1.2960 -1.7780 -1.1174
   10PEO   H07E 6444   5.289   4.533   4.813  0.1269  1.6723 -2.2373
   10PEO   O07F 6445   5.254   4.719   4.904 -0.1091  0.6035  0.0029
   10PEO   H080 6446   5.455   4.660   4.949  1.6619 -1.1128  4.4206
   10PEO   H081 6447   5.350   4.706   5.086 -1.1284  3.2870 -0.5461
   10PEO   C082 6448   5.373   4.725   4.981  0.3437  0.2905 -0.8853
   10PEO   C083 6449   5.422   4.868   4.975  0.0865  0.0961 -0.0590
   10PEO   H084 6450   5.334   4.933   4.966  0.5666  0.9492  1.2123
   10PEO   H085 6451   5.477   4.896   5.066 -0.8667  0.4531  0.4298
   10PEO   O086 6452   5.512   4.878   4.861 -0.6156  0.1285  0.1024
   10PEO   H087 6453   5.620   5.025   4.956  0.0287  0.7905 -0.3387
   10PEO   H088 6454   5.505   5.083   4.833  0.7322 -0.0071  0.1649
   10PEO   C089 6455   5.578   5.004   4.856  0.3997 -0.4463 -0.2526
   10PEO   C08A 6456   5.688   5.009   4.748  0.3399  0.3177  0.8357
   10PEO   H08B 6457   5.747   5.101   4.753  0.4703  0.3216 -0.4550
   10PEO   H08C 6458   5.752   4.919   4.755 -1.4502 -1.2879 -1.7262
   10PEO   O08D 6459   5.626   5.008   4.623 -0.1926  0.4275  0.1310
   10PEO   H08E 6460   5.793   4.933   4.521  1.0302  0.8242 -0.7697
   10PEO   H08F 6461   5.782   5.096   4.504  0.6565 -1.0054 -3.7571
   10PEO   C090 6462   5.714   5.010   4.514 -0.0249 -0.2386 -0.8136
   10PEO   C091 6463   5.638   4.986   4.386 -0.3151 -0.9838 -0.1441
   10PEO   H092 6464   5.715   4.967   4.309  0.0365 -1.9701  0.4414
   10PEO   H093 6465   5.575   4.896   4.386 -0.3520 -0.9646 -0.7953
   10PEO   O094 6466   5.550   5.104   4.360 -0.1117 -0.4504 -0.3082
   10PEO   H095 6467   5.417   4.993   4.276 -1.1945  0.6051  0.9224
   10PEO   H096 6468   5.505   5.101   4.158  0.3760  1.9459 -0.5106
   10PEO   C097 6469   5.460   5.092   4.258  0.4483 -0.3181 -0.6138
   10PEO   C098 6470   5.365   5.213   4.275  0.4866  0.3933 -0.9144
   10PEO   H099 6471   5.418   5.298   4.319  1.9363 -1.9767  2.3052
   10PEO   H09A 6472   5.316   5.245   4.182  1.6739 -0.6097 -1.9358
   10PEO   O09B 6473   5.266   5.172   4.378 -0.2942  0.3721 -0.7296
   10PEO   H09C 6474   5.407   5.211   4.534  0.3940 -0.7455 -0.6051
   10PEO   H09D 6475   5.352   5.044   4.532 -1.6997 -0.3074  0.0952
   10PEO   C09E 6476   5.319   5.147   4.514 -0.2701  0.0879 -0.3832
   10PEO   C09F 6477   5.216   5.187   4.617  0.1025  0.5289 -0.5655
   10PEO   H0A0 6478   5.122   5.130   4.609  1.3379 -1.6104 -0.6147
   10PEO   H0A1 6479   5.249   5.187   4.722 -0.7546  1.9478 -0.2625
   10PEO   O0A2 6480   5.180   5.320   4.594 -0.1842 -0.6084  0.6240
   10PEO   H0A3 6481   5.078   5.369   4.770 -1.2898  3.0598  0.8929
   10PEO   H0A4 6482   4.982   5.300   4.638  1.5446 -0.2164  0.0574
   10PEO   C0A5 6483   5.064   5.369   4.661  0.6458  0.7246  0.5683
   10PEO   C0A6 6484   5.046   5.517   4.614 -0.0742 -0.3672  0.4074
   10PEO   H0A7 6485   5.050   5.524   4.504 -0.6148 -0.4726  0.3808
   10PEO   H0A8 6486   4.942   5.542   4.637 -1.8333 -3.6606 -2.8617
   10PEO   O0A9 6487   5.135   5.610   4.676 -0.2140  0.1178  0.0154
   10PEO   H0AA 6488   5.078   5.762   4.554 -0.5589  0.7595  0.9661
   10PEO   H0AB 6489   5.217   5.793   4.669  0.0785 -0.2380 -1.6560
   10PEO   C0AC 6490   5.119   5.744   4.655 -0.3634 -0.1469  0.7403
   10PEO   C0AD 6491   5.014   5.791   4.753  0.4822  0.3388  0.3438
   10PEO   H0AE 6492   4.980   5.890   4.719  0.4274 -0.2872 -1.4911
   10PEO   H0AF 6493   4.928   5.723   4.753  1.5899 -1.0962 -0.0089
   10PEO   O0B0 6494   5.060   5.821   4.888  0.0757 -0.1887  0.1059
   10PEO   H0B1 6495   4.879   5.778   4.968 -0.1219  0.4264 -0.6564
   10PEO   H0B2 6496   4.886   5.941   4.929 -3.2816 -2.3035  1.3736
   10PEO   C0B3 6497   4.950   5.862   4.972  0.5107 -0.1258  0.1819
   10PEO   C0B4 6498   4.992   5.912   5.115 -0.6670  0.2232  0.8398
   10PEO   H0B5 6499   4.895   5.918   5.167 -1.0887  2.1597 -0.0514
   10PEO   H0B6 6500   5.071   5.850   5.159 -0.3032  2.2288  3.2582
   10PEO   O0B7 6501   5.016   6.053   5.111  0.5994  0.0235 -0.0735
   10PEO   H0B8 6502   5.077   6.043   5.307 -1.0706 -1.1468 -0.2330
   10PEO   H0B9 6503   4.923   6.129   5.279  1.1687  0.0639  0.4315
   10PEO   C0BA 6504   5.024   6.111   5.238  0.7839  0.0641 -0.5501
   10PEO   C0BB 6505   5.090   6.248   5.220 -0.6176  0.4559  0.4909
   10PEO   H0BC 6506   5.104   6.287   5.322  1.8181  2.2610 -0.4382
   10PEO   H0BD 6507   5.186   6.249   5.165 -0.6196  0.6157  0.4890
   10PEO   O0BE 6508   4.998   6.328   5.147 -0.6280 -0.6122 -0.2710
   10PEO   H0BF 6509   5.141   6.451   5.083  0.0357 -0.2428  0.1660
   10PEO   H0C0 6510   5.070   6.507   5.234  2.0286  0.1577 -0.0251
   10PEO   C0C1 6511   5.045   6.465   5.136  0.2116  0.2417  0.3689
   10PEO   C0C2 6512   4.943   6.553   5.064 -0.2723 -0.6183  0.3145
   10PEO   H0C3 6513   4.995   6.625   4.999 -1.5448 -0.9507 -1.1430
   10PEO   H0C4 6514   4.882   6.494   4.994 -3.5977 -0.1909  2.6377
   10PEO   O0C5 6515   4.865   6.634   5.157  0.0468  0.5324 -0.0695
   10PEO   H0C6 6516   4.849   6.548   5.354 -2.9839 -1.1210  1.5073
   10PEO   H0C7 6517   4.781   6.461   5.205 -0.6181  0.2647 -2.0455
   10PEO   C0C8 6518   4.797   6.557   5.257 -0.5493 -0.8796  0.1359
   10PEO   C0C9 6519   4.667   6.634   5.285  0.1040  0.0357  0.0953
   10PEO   H0CA 6520   4.645   6.695   5.197  1.1911  0.8604  0.3795
   10PEO   H0CB 6521   4.599   6.549   5.306  0.9130 -0.5619  0.3593
   10PEO   O0CC 6522   4.688   6.733   5.389 -0.7035 -0.6178 -0.2864
   10PEO   H0CD 6523   4.587   6.856   5.525 -4.5556  3.7850 -2.8129
   10PEO   H0CE 6524   4.527   6.680   5.508  1.0379 -0.3127  0.0756
   10PEO   C0CF 6525   4.571   6.769   5.460  0.0420  0.2475  0.1613
   10PEO   C0D0 6526   4.463   6.830   5.372 -0.3537 -0.3664  0.4632
   10PEO   H0D1 6527   4.400   6.896   5.433 -0.3644  0.6859 -0.6413
   10PEO   H0D2 6528   4.508   6.907   5.307 -2.5671  1.3314  0.7934
   10PEO   O0D3 6529   4.388   6.726   5.306 -0.0518 -1.0189  0.0757
   10PEO   H0D4 6530   4.383   6.805   5.126 -0.8723  1.1249 -0.6109
   10PEO   H0D5 6531   4.230   6.822   5.219 -0.4018 -1.2289  0.4297
   10PEO   C0D6 6532   4.311   6.753   5.191  0.4130 -0.0917 -0.0910
   10PEO   C0D7 6533   4.250   6.622   5.130  0.1592  0.4515  0.2705
   10PEO   H0D8 6534   4.280   6.550   5.208  1.2513  1.5395  0.9039
   10PEO   H0D9 6535   4.142   6.623   5.110  0.0633  0.7560  0.7709
   10PEO   O0DA 6536   4.317   6.590   5.012  0.2315 -0.5401 -0.2669
   10PEO   H0DB 6537   4.473   6.506   5.127 -0.3675 -0.8502 -1.3411
   10PEO   H0DC 6538   4.514   6.646   5.021  0.0248  0.1397  0.8010
   10PEO   C0DD 6539   4.454   6.554   5.030 -0.9210  0.5981 -0.5502
   10PEO   C0DE 6540   4.498   6.465   4.912  0.0390  0.3997 -0.4048
   10PEO   H0DF 6541   4.467   6.511   4.817 -0.8985 -1.4252 -1.0333
   10PEO   H0E0 6542   4.608   6.467   4.915  0.0374  0.8329 -0.5242
   10PEO   O0E1 6543   4.454   6.328   4.923 -0.6217  0.1004 -0.2170
   10PEO   H0E2 6544   4.592   6.232   4.816  0.1103  0.5000 -0.0764
   10PEO   H0E3 6545   4.460   6.259   4.711  2.3041 -1.5948 -0.5851
   10PEO   C0E4 6546   4.482   6.232   4.816  0.1071 -0.1948  0.3141
   10PEO   C0E5 6547   4.430   6.093   4.850 -0.1592  0.4351 -0.3386
   10PEO   H0E6 6548   4.321   6.091   4.867 -0.3091 -0.1207 -1.2953
   10PEO   H0E7 6549   4.446   6.014   4.775 -1.8661 -2.4324  2.0870
   10PEO   O0E8 6550   4.499   6.053   4.971 -0.5368 -0.0172  0.2659
   10PEO   H0E9 6551   4.449   5.860   4.934 -0.4362 -0.3789  0.1386
   10PEO   H0EA 6552   4.366   5.944   5.078 -0.0190  0.1827 -0.3086
   10PEO   C0EB 6553   4.458   5.927   5.020  0.0977 -0.2823  0.0094
   10PEO   C0EC 6554   4.566   5.867   5.111 -0.8081  0.0365  0.4562
   10PEO   H0ED 6555   4.562   5.757   5.113  2.4260 -0.2650 -2.1625
   10PEO   H0EE 6556   4.667   5.890   5.074 -1.2234  1.6940  0.2566
   10PEO   O0EF 6557   4.549   5.928   5.240 -0.0625  0.2775 -0.2855
   10PEO   H0F0 6558   4.660   5.996   5.409  3.9786  2.4586 -1.3550
   10PEO   H0F1 6559   4.743   5.981   5.258  0.7945  0.6549  1.0449
   10PEO   C0F2 6560   4.670   5.930   5.322 -0.4911  0.4141 -0.5483
   10PEO   C0F3 6561   4.722   5.792   5.372 -0.2477  0.6649 -0.0886
   10PEO   H0F4 6562   4.790   5.808   5.457  0.1799  0.4507 -0.3818
   10PEO   H0F5 6563   4.640   5.724   5.397 -0.3052  0.7577 -0.0246
   10PEO   O0F6 6564   4.793   5.727   5.262 -0.2228  0.2620  0.0962
   10PEO   H0F7 6565   4.768   5.525   5.324  1.9101 -3.7483 -2.6092
   10PEO   H0F8 6566   4.916   5.604   5.366  0.0230  5.8791 -0.5100
   10PEO   C0F9 6567   4.841   5.598   5.286 -0.3207  0.1311 -0.1447
   10PEO   C0FA 6568   4.895   5.530   5.159  0.0113 -0.2272 -0.1033
   10PEO   H0FB 6569   4.957   5.600   5.101 -0.2408 -0.2991 -0.4599
   10PEO   H0FC 6570   4.943   5.435   5.185 -0.3454 -0.5826 -0.7498
   10PEO   O0FD 6571   4.787   5.507   5.071  0.0101 -0.0305 -0.2502
   10PEO   H0FE 6572   4.919   5.396   4.931 -0.0601  0.3255  2.7308
   10PEO   H0FF 6573   4.862   5.566   4.887 -2.3492 -0.7691 -2.5033
   10PEO   C100 6574   4.837   5.470   4.934 -0.9935 -0.3630 -0.8824
   10PEO   C101 6575   4.727   5.418   4.851 -0.3112  0.1767  1.0570
   10PEO   H102 6576   4.768   5.350   4.776 -3.5245  1.4370 -2.1049
   10PEO   H103 6577   4.656   5.361   4.913  0.0770  0.1105  1.4452
   10PEO   O104 6578   4.662   5.521   4.783 -0.2320 -0.3002 -0.1519
   10PEO   H105 6579   4.655   5.677   4.914 -0.5766  0.9947  1.0145
   10PEO   H106 6580   4.530   5.561   4.948 -1.7479  2.2590 -0.6328
   10PEO   C107 6581   4.584   5.609   4.865  0.4814  0.7011 -0.1613
   10PEO   C108 6582   4.483   5.673   4.764  0.2992 -0.0322  0.5039
   10PEO   H109 6583   4.447   5.595   4.696  3.2122 -0.0181 -1.2077
   10PEO   H10A 6584   4.392   5.710   4.813  0.9001  2.6016 -0.2221
   10PEO   O10B 6585   4.548   5.769   4.681  0.4263 -0.0933 -0.4077
   10PEO   H10C 6586   4.410   5.910   4.588 -0.4863 -0.2986 -1.6419
   10PEO   H10D 6587   4.443   5.759   4.499 -0.8812 -0.6978  0.5111
   10PEO   C10E 6588   4.485   5.832   4.570 -0.2710 -0.4952 -0.0523
   10PEO   C10F 6589   4.591   5.912   4.498  0.7094 -0.1615 -0.2595
   10PEO   H110 6590   4.548   5.987   4.430  1.0186  0.9911  0.7889
   10PEO   H111 6591   4.643   5.974   4.572 -0.5863  2.5113 -1.4501
   10PEO   O112 6592   4.674   5.831   4.415 -0.2171 -0.0585 -0.3163
   10PEO   H113 6593   4.703   5.649   4.521  0.8528 -2.0523 -2.8223
   10PEO   H114 6594   4.825   5.766   4.544  1.0561 -2.6541  1.7817
   10PEO   C115 6595   4.757   5.728   4.466  0.5365  0.6306  0.4636
   10PEO   C116 6596   4.834   5.666   4.342  0.0497  0.6441 -1.0278
   10PEO   H117 6597   4.864   5.563   4.366  0.3608  1.2089  1.1959
   10PEO   H118 6598   4.758   5.666   4.263 -1.4278 -2.4211  0.2387
   10PEO   O119 6599   4.935   5.754   4.297 -0.2168  0.4714  0.1807
   10PEO   H11A 6600   5.073   5.802   4.142 -1.7713  2.0118 -0.4871
   10PEO   H11B 6601   4.910   5.736   4.094 -0.9029  0.1311  0.1808
   10PEO   C11C 6602   4.995   5.728   4.164 -0.0988  0.0853 -0.7722
   10PEO   C11D 6603   5.051   5.584   4.149 -0.0239 -0.1006 -0.0030
   10PEO   H11E 6604   5.112   5.578   4.057 -0.3520 -0.8233 -0.1821
   10PEO   H11F 6605   5.119   5.559   4.231 -0.8292 -0.0195  0.6994
   10PEO   O120 6606   4.946   5.479   4.135 -0.0750  0.5214  0.0034
   10PEO   H121 6607   5.037   5.340   4.259  1.2108  4.0734 -0.3881
   10PEO   H122 6608   5.022   5.302   4.076  1.5151  1.0368  0.3121
   10PEO   C123 6609   4.978   5.347   4.166 -0.3494 -0.1569  0.0531
   10PEO   C124 6610   4.847   5.271   4.183 -0.3240 -0.9005  0.0813
   10PEO   H125 6611   4.854   5.171   4.228 -1.0751 -0.8571  0.3076
   10PEO   H126 6612   4.785   5.333   4.250 -1.0420 -0.6940 -0.7492
   10PEO   O127 6613   4.791   5.268   4.052 -0.4540  0.4624  0.1448
   10PEO   H128 6614   4.600   5.226   4.122  0.4261  1.0764  1.0066
   10PEO   H129 6615   4.679   5.082   4.064 -0.7594  0.6436  1.3531
   10PEO   C12A 6616   4.670   5.190   4.045  0.1265  0.6505  0.9307
   10PEO   C12B 6617   4.605   5.191   3.904  0.6983 -0.2324  0.1358
   10PEO   H12C 6618   4.495   5.190   3.907  0.6416  1.9761  0.1955
   10PEO   H12D 6619   4.636   5.279   3.846  0.5215 -0.4548 -0.2972
   10PEO   O12E 6620   4.653   5.075   3.849 -0.5973 -0.1790  0.2074
   10PEO   H12F 6621   4.853   5.068   3.924 -0.0692  1.8507  0.1012
   10PEO   H130 6622   4.832   5.149   3.766 -0.9748 -0.3593 -2.5436
   10PEO   C131 6623   4.799   5.064   3.828  0.2195  0.9165 -0.0345
   10PEO   C132 6624   4.842   4.938   3.740 -0.1713  0.3347 -0.3494
   10PEO   H133 6625   4.792   4.946   3.642 -1.6410  2.7029  0.5106
   10PEO   H134 6626   4.950   4.946   3.721 -0.0679 -1.6756 -0.8498
   10PEO   O135 6627   4.803   4.821   3.814 -0.3502 -0.6311  0.6430
   10PEO   H136 6628   4.587   4.828   3.779 -0.9843 -1.6200  0.4497
   10PEO   H137 6629   4.654   4.691   3.874  1.2809 -1.0895 -0.9047
   10PEO   C138 6630   4.673   4.760   3.790  0.4939  0.0741 -0.1718
   10PEO   C139 6631   4.688   4.676   3.661  0.1787  0.4820 -0.7457
   10PEO   H13A 6632   4.587   4.633   3.651  0.6193 -2.4631  4.2597
   10PEO   H13B 6633   4.723   4.744   3.582 -0.8181  0.8256 -0.9014
   10PEO   O13C 6634   4.766   4.555   3.668  0.0490 -0.1701  0.3885
   10PEO   H13D 6635   4.933   4.663   3.696  0.2150  0.8583 -1.1746
   10PEO   H13E 6636   4.928   4.610   3.529 -0.4661  1.4380  0.8073
   10PEO   C13F 6637   4.903   4.579   3.632  0.1883 -0.4387  0.4517
   10PEO   C140 6638   4.991   4.460   3.672 -0.4419  0.3811 -0.0732
   10PEO   H141 6639   5.097   4.488   3.663  0.0866 -1.8167 -1.3814
   10PEO   H142 6640   4.984   4.438   3.780  0.6281  1.3694  0.2201
   10PEO   O143 6641   4.969   4.340   3.592  0.0484 -0.5092  0.1125
   10PEO   H144 6642   5.110   4.410   3.457  2.2506 -1.8220  0.0107
   10PEO   H145 6643   4.928   4.412   3.401  0.7426  0.6924 -0.9779
   10PEO   C146 6644   5.011   4.364   3.455  0.5588  1.5007  0.0640
   10PEO   C147 6645   5.046   4.222   3.393  0.3879 -0.1056 -0.0451
   10PEO   H148 6646   5.065   4.237   3.286 -2.2500 -0.5928 -0.6678
   10PEO   H149 6647   5.125   4.169   3.447 -0.5017 -1.7584 -0.3105
   10PEO   O14A 6648   4.920   4.153   3.411 -0.2046  0.1346 -0.0955
   10PEO   H14B 6649   4.926   4.027   3.242 -1.1975 -3.6025 -0.5151
   10PEO   H14C 6650   4.826   3.964   3.377 -1.6412  4.8184  1.2393
   10PEO   C14D 6651   4.918   4.018   3.352  0.3944  1.1628  0.2168
   10PEO   C14E 6652   5.028   3.921   3.410 -1.3753 -0.0844  0.0096
   10PEO   H14F 6653   5.035   3.946   3.517  0.8803  1.1131 -0.3706
   10PEO   H150 6654   4.995   3.816   3.403  0.4802 -0.7569  0.8498
   10PEO   O151 6655   5.146   3.956   3.329 -0.3511 -0.0732  0.1499
   10PEO   H152 6656   5.242   3.769   3.372  1.1350 -0.3333  0.6747
   10PEO   H153 6657   5.293   3.907   3.468  0.3090 -0.7562 -0.2096
   10PEO   C154 6658   5.261   3.878   3.368 -0.2530 -0.1091 -0.2227
   10PEO   C155 6659   5.388   3.908   3.290  0.5267  0.6941 -0.5340
   10PEO   H156 6660   5.450   3.819   3.303  0.6944  0.9609  0.6864
   10PEO   H157 6661   5.376   3.919   3.182  4.0433 -3.1383 -1.5589
   10PEO   O158 6662   5.450   4.024   3.340  0.6472  0.0114  0.1552
   10PEO   H159 6663   5.592   4.167   3.291 -2.7976  0.7450  0.7655
   10PEO   H15A 6664   5.605   4.019   3.197 -2.1175  0.1087 -1.3022
   10PEO   C15B 6665   5.580   4.057   3.297  0.9325  0.1401 -0.4385
   10PEO   C15C 6666   5.681   3.992   3.394  0.4489 -1.2629 -0.6192
   10PEO   H15D 6667   5.774   4.050   3.400  0.5786 -1.5785  0.8223
   10PEO   H15E 6668   5.625   3.995   3.489 -0.9088 -1.8618 -1.3647
   10PEO   O15F 6669   5.691   3.848   3.362  0.4663 -0.5565 -0.4067
   10PEO   H160 6670   5.772   3.803   3.549 -2.0034  2.6964 -0.4894
   10PEO   H161 6671   5.895   3.800   3.415 -0.4689  0.6532 -0.3350
   10PEO   C162 6672   5.791   3.781   3.443 -0.0575 -0.6940  0.3796
   10PEO   C163 6673   5.776   3.629   3.414  0.4801 -0.5986  0.6868
   10PEO   H164 6674   5.669   3.614   3.434  0.1732  1.2177  0.6091
   10PEO   H165 6675   5.792   3.615   3.306 -0.5451  3.2618 -0.1345
   10PEO   O166 6676   5.868   3.561   3.494 -0.9571 -0.3596  0.2936
   10PEO   H167 6677   5.781   3.370   3.504  0.0311  0.0307 -0.4259
   10PEO   H168 6678   5.965   3.393   3.534  0.8010  1.2762  0.0817
   10PEO   C169 6679   5.876   3.416   3.474  0.5131 -0.9313 -0.4340
   10PEO   C16A 6680   5.892   3.382   3.322  0.0959  0.8503 -0.8272
   10PEO   H16B 6681   5.926   3.277   3.314  0.3456  0.7756  0.7980
   10PEO   H16C 6682   5.801   3.398   3.263 -1.1898 -0.5607  0.6402
   10PEO   O16D 6683   5.999   3.457   3.264 -0.4067 -0.1012 -0.1986
   10PEO   H16E 6684   6.137   3.449   3.423  1.6004  3.7925  0.4069
   10PEO   H16F 6685   6.203   3.534   3.287  1.1064 -0.9966  3.7576
   10PEO   C170 6686   6.134   3.451   3.313 -0.4456 -1.0213  0.1144
   10PEO   C171 6687   6.208   3.333   3.241 -0.3361  1.1137 -0.2899
   10PEO   H172 6688   6.158   3.309   3.146 -0.5775 -0.2449  0.1615
   10PEO   H173 6689   6.311   3.362   3.216 -0.3907  0.6682 -1.0658
   10PEO   O174 6690   6.198   3.217   3.336  0.5939  0.5045  0.5336
   10PEO   H175 6691   6.352   3.117   3.221 -0.9721 -1.7689 -1.9610
   10PEO   H176 6692   6.200   3.056   3.192  0.6746  0.8946 -0.8252
   10PEO   C177 6693   6.260   3.093   3.277  0.0311 -0.6127  0.3361
   10PEO   C178 6694   6.283   2.981   3.375  0.5949  0.8789 -0.7342
   10PEO   H179 6695   6.310   2.883   3.334 -1.4705 -0.6399  1.2225
   10PEO   H17A 6696   6.359   3.024   3.442  1.5968 -1.7638 -0.0289
   10PEO   O17B 6697   6.154   2.966   3.444  0.4559 -0.5008  0.4285
   10PEO   H17C 6698   5.983   2.838   3.465 -1.2974  0.5297 -1.4637
   10PEO   H17D 6699   6.136   2.763   3.406  0.8862 -0.2430 -0.9730
   10PEO   C17E 6700   6.068   2.849   3.396 -0.3124 -1.1084 -0.5783
   10PEO   C17F 6701   6.009   2.862   3.256 -0.4694 -0.2607  0.7840
   10PEO   H180 6702   5.917   2.803   3.263  0.7569 -2.3249  0.3563
   10PEO   H181 6703   5.979   2.964   3.229  1.1143 -0.1972 -0.9194
   10PEO   O182 6704   6.093   2.812   3.156  0.0747  0.2274  0.3224
   10PEO   H183 6705   6.048   2.950   3.003 -0.7221  0.2408 -3.5509
   10PEO   H184 6706   5.950   2.793   2.998  0.6962 -1.1294 -2.0057
   10PEO   C185 6707   6.044   2.842   3.025 -0.6066  0.7524 -0.5973
   10PEO   C186 6708   6.149   2.796   2.927 -0.1008  0.1082  0.8933
   10PEO   H187 6709   6.118   2.831   2.827 -3.1095  2.1290  2.3811
   10PEO   H188 6710   6.238   2.853   2.958 -0.9661  1.1202  1.5840
   10PEO   O189 6711   6.165   2.653   2.943 -0.0982 -0.1998 -0.1252
   10PEO   H18A 6712   6.357   2.634   2.863 -0.4777 -1.5945  4.8855
   10PEO   H18B 6713   6.213   2.630   2.742 -1.3066 -1.8396 -0.1745
   10PEO   C18C 6714   6.254   2.603   2.840 -0.1900  0.1996 -0.0189
   10PEO   C18D 6715   6.256   2.447   2.849  0.3511  0.6641  0.1372
   10PEO   H18E 6716   6.338   2.385   2.808 -0.6044 -0.1642 -0.5696
   10PEO   H18F 6717   6.255   2.417   2.955 -1.6911 -0.7672 -0.2297
   10PEO   O190 6718   6.134   2.384   2.791  1.1054 -0.1336  0.0268
   10PEO   H191 6719   6.006   2.534   2.752  1.4678  0.9607 -0.0664
   10PEO   H192 6720   5.993   2.479   2.916 -0.9434  0.6843 -0.2339
   10PEO   C193 6721   6.007   2.443   2.813 -0.1304  0.8335 -0.1813
   10PEO   C194 6722   5.901   2.344   2.751 -0.0142  0.7313  0.0191
   10PEO   H195 6723   5.810   2.399   2.722 -1.5425 -1.5284  0.2331
   10PEO   H196 6724   5.948   2.298   2.662  0.1585 -0.1805  0.5712
   10PEO   O197 6725   5.870   2.243   2.846  0.0319 -0.2656 -0.3696
   10PEO   H198 6726   5.841   2.078   2.728  0.9942  1.1840 -0.1258
   10PEO   H199 6727   5.702   2.189   2.737  1.5228  0.1294 -2.5521
   10PEO   C19A 6728   5.785   2.145   2.794 -0.4119 -0.2034  0.1369
   10PEO   C19B 6729   5.722   2.065   2.904  0.1855  0.0087 -0.5082
   10PEO   H19C 6730   5.640   2.004   2.862  0.3327 -0.2640 -0.4042
   10PEO   H19D 6731   5.810   2.012   2.945 -0.4635 -3.4502 -3.1618
   10PEO   O19E 6732   5.679   2.161   3.003  0.0802  0.0129 -0.1612
   10PEO   H19F 6733   5.570   2.300   2.882  0.7387  1.1473  1.0057
   10PEO   H1A0 6734   5.556   2.322   3.044 -0.6019 -0.1333 -1.0178
   10PEO   C1A1 6735   5.563   2.239   2.973  0.5539 -0.7476 -0.2278
   10PEO   C1A2 6736   5.430   2.161   2.965 -0.2614 -0.5013 -0.6719
   10PEO   H1A3 6737   5.436   2.077   3.035 -0.4948  1.4936  1.8871
   10PEO   H1A4 6738   5.344   2.226   2.989 -1.9696 -1.6897 -3.0589
   10PEO   O1A5 6739   5.410   2.116   2.833  0.1011  0.3205 -0.1358
   10PEO   H1A6 6740   5.217   2.042   2.879  0.6156  0.5489 -0.2694
   10PEO   H1A7 6741   5.340   1.918   2.851  0.6560  0.5109 -0.2179
   10PEO   C1A8 6742   5.302   2.014   2.815  0.1758  0.1519 -0.6957
   10PEO   C1A9 6743   5.263   2.020   2.671  0.3554 -0.4336  0.4795
   10PEO   H1AA 6744   5.165   1.971   2.665 -0.6453  1.6129 -0.9938
   10PEO   H1AB 6745   5.253   2.125   2.639  2.9629 -0.6040 -1.1296
   10PEO   O1AC 6746   5.356   1.955   2.585  0.4697 -0.7183  0.0421
   10PEO   H1AD 6747   5.399   1.943   2.377  2.1502  2.8552  1.5461
   10PEO   H1AE 6748   5.286   2.060   2.417 -0.1395  0.8182 -0.0058
   10PEO   C1AF 6749   5.314   1.958   2.446 -0.1798  0.6241 -0.6436
   10PEO   C1B0 6750   5.200   1.855   2.431 -0.3775  0.0654  0.4201
   10PEO   H1B1 6751   5.113   1.896   2.484  0.7956  2.0813  0.8812
   10PEO   H1B2 6752   5.165   1.857   2.326 -0.8374  0.1165  0.5727
   10PEO   O1B3 6753   5.243   1.724   2.472 -0.1852  0.0099  0.4187
   10PEO   H1B4 6754   5.095   1.624   2.363  2.7546 -2.6551 -1.5912
   10PEO   H1B5 6755   5.054   1.632   2.533 -1.4541 -2.6013 -1.4559
   10PEO   C1B6 6756   5.140   1.622   2.464  0.0237  0.1851 -0.1789
   10PEO   C1B7 6757   5.212   1.491   2.495 -0.5997 -0.0898  0.5068
   10PEO   H1B8 6758   5.319   1.509   2.479 -0.7494 -1.5609 -2.9515
   10PEO   H1B9 6759   5.199   1.467   2.602 -1.0781 -0.4460  0.3728
   10PEO   O1BA 6760   5.176   1.381   2.416 -0.0028  0.0563  0.5338
   10PEO   H1BB 6761   5.251   1.213   2.520  3.1858 -0.3410 -0.4544
   10PEO   H1BC 6762   5.363   1.314   2.429 -0.6494  2.2983 -2.2812
   10PEO   C1BD 6763   5.260   1.274   2.429  0.1406  0.0053 -0.6145
   10PEO   C1BE 6764   5.257   1.171   2.318 -0.5538  0.3442 -0.5474
   10PEO   H1BF 6765   5.252   1.222   2.221  3.8774  0.4125 -0.9219
   10PEO   H1C0 6766   5.346   1.107   2.314  0.6019  1.8946 -0.4037
   10PEO   O1C1 6767   5.151   1.074   2.346  0.3570  0.4134  0.0546
   10PEO   H1C2 6768   5.162   0.998   2.150  0.9996  1.6646  0.5564
   10PEO   H1C3 6769   5.048   0.913   2.262 -0.6339  0.7659 -1.9335
   10PEO   C1C4 6770   5.146   0.962   2.253 -0.0108 -0.0684 -0.1538
   10PEO   C1C5 6771   5.247   0.854   2.295 -0.5416  0.5070  0.8093
   10PEO   H1C6 6772   5.246   0.776   2.218  0.3222 -0.2577  1.5458
   10PEO   H1C7 6773   5.350   0.888   2.312 -0.1783 -1.3493  2.8474
   10PEO   O1C8 6774   5.202   0.790   2.423  0.6580 -0.4993 -0.0002
   10PEO   H1C9 6775   5.348   0.713   2.538  1.6865 -0.0116 -1.3922
   10PEO   H1CA 6776   5.347   0.640   2.379  0.3820  0.4107  0.3364
   10PEO   C1CB 6777   5.281   0.674   2.460 -0.1208 -0.4635  0.3062
   10PEO   C1CC 6778   5.193   0.561   2.504  0.0734 -1.1082  0.2718
   10PEO   H1CD 6779   5.260   0.482   2.539 -0.1849 -0.0413  3.6238
   10PEO   H1CE 6780   5.129   0.591   2.589 -0.8572  1.9064 -1.3288
   10PEO   O1CF 6781   5.108   0.511   2.396 -0.3770 -0.0283 -0.3834
   10PEO   H1D0 6782   4.982   0.682   2.355  0.6242  0.4668 -1.3530
   10PEO   H1D1 6783   4.918   0.551   2.468 -3.1270 -1.3094 -2.4310
   10PEO   C1D2 6784   4.977   0.575   2.378 -0.1893  0.7509 -0.1411
   10PEO   C1D3 6785   4.902   0.506   2.265  0.3713  0.1831  0.0378
   10PEO   H1D4 6786   4.915   0.398   2.279  1.4376  0.3976  0.7901
   10PEO   H1D5 6787   4.794   0.514   2.286  0.4041  1.1040 -0.0925
   10PEO   O1D6 6788   4.925   0.550   2.129  0.4333  0.0214  0.3352
   10PEO   H1D7 6789   5.123   0.488   2.151  0.1603 -0.1337 -0.4940
   10PEO   H1D8 6790   5.100   0.661   2.110 -0.7140  0.4565  0.5907
   10PEO   C1D9 6791   5.063   0.559   2.092 -0.5557  0.3615  0.7930
   10PEO   C1DA 6792   5.087   0.501   1.949  0.9502  0.1164  0.0906
   10PEO   H1DB 6793   5.191   0.466   1.956  0.8796  0.2591  2.5684
   10PEO   H1DC 6794   5.011   0.422   1.936 -1.3019  1.8379  1.8102
   10PEO   O1DD 6795   5.076   0.589   1.844 -0.2094 -0.2971 -0.1294
   10PEO   H1DE 6796   5.266   0.660   1.828  0.1111  0.8704 -0.3268
   10PEO   H1DF 6797   5.169   0.756   1.931  2.1270 -0.4759  0.2409
   10PEO   C1E0 6798   5.164   0.701   1.837  0.0610  0.7781 -0.4708
   10PEO   C1E1 6799   5.117   0.799   1.730  0.2444 -0.0273  0.6608
   10PEO   H1E2 6800   5.029   0.856   1.765  0.9414  0.1282  2.2156
   10PEO   H1E3 6801   5.192   0.874   1.701  0.2274 -0.1370  0.3258
   10PEO   O1E4 6802   5.076   0.733   1.606 -0.2832  0.1567 -0.0379
   10PEO   H1E5 6803   5.047   0.911   1.523  1.4269 -0.5778 -0.1302
   10PEO   H1E6 6804   4.901   0.822   1.595 -0.3512 -1.3140 -0.8362
   10PEO   C1E7 6805   4.992   0.816   1.533  0.0204  0.1719 -0.4634
   10PEO   C1E8 6806   4.955   0.762   1.392 -0.0278 -0.2394  0.7911
   10PEO   H1E9 6807   4.909   0.663   1.405  0.0020 -0.1876  1.3199
   10PEO   H1EA 6808   4.887   0.823   1.331 -0.5754 -0.4069  1.2364
   10PEO   O1EB 6809   5.086   0.737   1.327 -0.4125  0.7333  0.4791
   10PEO   H1EC 6810   5.048   0.699   1.119  2.2330 -0.6462 -1.4961
   10PEO   H1ED 6811   4.987   0.584   1.227 -0.9215  1.3909  0.6614
   10PEO   C1EE 6812   5.074   0.650   1.214  0.2294 -0.3322 -0.7312
   10PEO   C1EF 6813   5.204   0.578   1.196  0.3375  0.0683  0.8287
   10PEO   H1F0 6814   5.207   0.534   1.095  1.5448  0.5944  0.6096
   10PEO   H1F1 6815   5.273   0.664   1.194  0.1493  0.2694  2.2425
   10PEO   O1F2 6816   5.226   0.483   1.301  0.3533  0.0390 -0.4427
   10PEO   H1F3 6817   5.118   0.531   1.465 -0.7656  2.0563 -0.2908
   10PEO   H1F4 6818   5.281   0.600   1.449  2.8614 -1.7764 -1.6229
   10PEO   C1F5 6819   5.222   0.508   1.440 -1.1704  0.4371 -0.5892
   10PEO   C1F6 6820   5.272   0.387   1.508  0.4750  0.9095  0.0834
   10PEO   H1F7 6821   5.236   0.387   1.612 -0.5648 -0.7251 -0.2267
   10PEO   H1F8 6822   5.214   0.298   1.477  1.2164  0.6107 -0.4617
   10PEO   O1F9 6823   5.414   0.363   1.496  0.7445  0.4795  0.2178
   10PEO   H1FA 6824   5.405   0.155   1.494 -0.2796 -0.5184  1.4366
   10PEO   H1FB 6825   5.418   0.216   1.656  1.5718 -0.9276  1.0303
   10PEO   C1FC 6826   5.455   0.233   1.553  0.8264 -0.7044  0.7973
   10PEO   C1FD 6827   5.611   0.218   1.570  0.6423  0.1836  0.6251
   10PEO   H1FE 6828   5.656   0.306   1.619  1.1894 -0.0779  0.5976
   10PEO   H1FF 6829   5.625   0.128   1.632 -2.4341 -0.6912  0.2062
   10PEO   O200 6830   5.679   0.192   1.443  0.0526  0.1943  0.4479
   10PEO   H201 6831   5.798   0.021   1.467  0.4793 -0.3838 -1.9998
   10PEO   H202 6832   5.865   0.169   1.543 -2.7484  0.3110  1.1354
   10PEO   C203 6833   5.814   0.129   1.454 -0.7368  0.1016  0.0186
   10PEO   C204 6834   5.887   0.151   1.315 -0.6301 -1.0644 -0.0352
   10PEO   H205 6835   5.854   0.066   1.252 -0.9545 -0.5628 -0.5501
   10PEO   H206 6836   5.873   0.247   1.263  2.2983 -0.3887  0.2562
   10PEO   O207 6837   6.023   0.135   1.346 -0.9631 -0.6022 -0.3132
   10PEO   H208 6838   6.105   0.219   1.174 -0.8236 -0.6036 -0.4253
   10PEO   H209 6839   6.094   0.040   1.167  1.3626 -2.1573  1.5539
   10PEO   C20A 6840   6.115   0.126   1.232 -0.2078 -0.3690 -0.1501
   10PEO   C20B 6841   6.259   0.117   1.280 -0.0446  0.6793  0.8610
   10PEO   H20C 6842   6.275   0.024   1.337  1.5119  0.1594 -0.3479
   10PEO   H20D 6843   6.308   0.119   1.182  0.9749 -0.3559  1.3339
   10PEO   O20E 6844   6.293   0.231   1.359 -0.1440 -0.2876  0.0003
   10PEO   H20F 6845   6.488   0.213   1.316  1.3632  0.3773  0.6021
   10PEO   H210 6846   6.450   0.131   1.467  2.9342  0.9111  0.9261
   10PEO   C211 6847   6.427   0.221   1.408 -0.0969 -0.4938 -0.2414
   10PEO   C212 6848   6.469   0.346   1.482  0.2711 -0.4362 -0.7326
   10PEO   H213 6849   6.396   0.384   1.556  2.4836  1.4421  0.5985
   10PEO   H214 6850   6.562   0.327   1.537  0.9777  1.8191 -1.0539
   10PEO   O215 6851   6.484   0.441   1.380 -0.1907  0.2226  0.0649
   10PEO   H216 6852   6.575   0.602   1.314 -1.0325 -0.2103 -0.1097
   10PEO   H217 6853   6.681   0.523   1.419  0.0439 -0.1018  1.6540
   10PEO   C218 6854   6.574   0.546   1.409  0.0973 -0.4841 -0.2443
   10PEO   C219 6855   6.533   0.631   1.535 -0.0886 -0.1046 -0.0575
   10PEO   H21A 6856   6.592   0.722   1.519 -0.8315  0.5855  1.0105
   10PEO   H21B 6857   6.425   0.654   1.534  0.0219  0.4020 -0.3642
   10PEO   O21C 6858   6.580   0.579   1.660 -0.5703 -0.4167 -0.2228
   10PEO   H21D 6859   6.473   0.733   1.738 -0.3861 -0.7213 -0.1036
   10PEO   H21E 6860   6.646   0.766   1.730  0.8644 -1.8699 -2.1834
   10PEO   C21F 6861   6.572   0.688   1.750 -0.2280 -0.4218 -0.2584
   10PEO   C220 6862   6.596   0.639   1.893  0.4463  0.9010 -0.1006
   10PEO   H221 6863   6.581   0.726   1.959 -2.4707 -2.3623  4.0548
   10PEO   H222 6864   6.522   0.565   1.927  0.4477 -0.1648 -2.2298
   10PEO   O223 6865   6.723   0.579   1.910 -0.0610  0.7824 -0.4707
   10PEO   H224 6866   6.661   0.425   2.044 -1.6286  1.3617  0.3456
   10PEO   H225 6867   6.682   0.599   2.110 -2.0315 -0.9036  0.2405
   10PEO   C226 6868   6.720   0.518   2.046  0.1482  0.2737 -0.0490
   10PEO   C227 6869   6.864   0.506   2.087  0.8177 -0.2278 -0.2537
   10PEO   H228 6870   6.924   0.589   2.046 -1.7521  1.7900 -0.1818
   10PEO   H229 6871   6.865   0.535   2.192 -2.4494  2.2665 -0.7548
   10PEO   O22A 6872   6.921   0.378   2.060  0.1642 -0.2281 -0.4570
   10PEO   H22B 6873   6.758   0.268   2.126  0.0818  1.0874 -3.1270
   10PEO   H22C 6874   6.878   0.302   2.258 -0.4290  0.0665 -0.1888
   10PEO   C22D 6875   6.865   0.279   2.151 -0.3948 -0.0782 -0.1622
   10PEO   C22E 6876   6.951   0.158   2.128 -0.1410  0.2269 -0.0374
   10PEO   H22F 6877   7.057   0.187   2.131 -0.3291  0.9272 -0.0263
   10PEO   H230 6878   6.943   0.091   2.215 -1.2471  0.4711  0.0526
   10PEO   O231 6879   6.915   0.091   2.000  0.6953 -0.2966  0.6413
   10PEO   H232 6880   7.088  -0.033   1.964  0.4813 -1.3467  0.6973
   10PEO   H233 6881   6.951  -0.039   1.845 -2.4588  1.5638  1.1957
   10PEO   C234 6882   6.979  -0.031   1.951  0.5058  0.4037  0.6139
   10PEO   C235 6883   6.926  -0.156   2.016 -0.1628 -0.3691  0.5164
   10PEO   H236 6884   6.993  -0.239   1.990 -1.3011 -1.5340  1.2017
   10PEO   H237 6885   6.938  -0.147   2.125  0.5663 -0.2823  0.4283
   10PEO   O238 6886   6.789  -0.172   1.974  0.3892 -0.3014 -0.4425
   10PEO   H239 6887   6.743  -0.242   2.161  1.4541 -1.7896  0.1885
   10PEO   H23A 6888   6.699  -0.352   2.028  2.7104 -0.2598 -0.6284
   10PEO   C23B 6889   6.699  -0.247   2.060  0.5273 -0.5424  0.5126
   10PEO   C23C 6890   6.548  -0.199   2.055 -0.6656 -0.3833 -0.0559
   10PEO   H23D 6891   6.527  -0.140   1.965  0.1846 -1.4011 -0.9530
   10PEO   H23E 6892   6.473  -0.279   2.050  0.6797 -1.6010 -2.4470
   10PEO   O23F 6893   6.534  -0.105   2.169  0.4814  0.0546  0.0621
   10PEO   H240 6894   6.501   0.062   2.052 -0.1917  1.0706  1.9381
   10PEO   H241 6895   6.674   0.039   2.108  1.7497  0.3953  2.4552
   10PEO   C242 6896   6.567   0.028   2.133  1.2708  0.3130  0.4781
   10PEO   C243 6897   6.530   0.120   2.254 -0.3744  0.0162 -0.4174
   10PEO   H244 6898   6.494   0.220   2.227 -0.8934 -0.5605 -1.9522
   10PEO   H245 6899   6.447   0.071   2.307  0.3733 -0.1048  0.6867
   10PEO   O246 6900   6.645   0.147   2.328  0.3721 -0.3363 -0.3344
   10PEO   H247 6901   6.579   0.094   2.523  0.3285  0.5278  0.7983
   10PEO   H248 6902   6.549   0.259   2.485 -0.0653  0.0363  1.9345
   10PEO   C249 6903   6.619   0.177   2.462 -0.2374  0.3416  0.1710
   10PEO   C24A 6904   6.755   0.221   2.523  0.6694  0.0258  0.3802
   10PEO   H24B 6905   6.754   0.191   2.629 -0.8241 -0.3559  0.2729
   10PEO   H24C 6906   6.840   0.168   2.478 -0.5503 -1.0203 -0.7719
   10PEO   O24D 6907   6.780   0.363   2.495 -0.3617 -0.3222 -0.3303
   10PEO   H24E 6908   6.976   0.393   2.451 -1.0062 -0.7289 -0.1877
   10PEO   H24F 6909   6.942   0.366   2.627  0.1631 -0.4106  0.0317
   10PEO   C250 6910   6.908   0.415   2.535  0.2837  0.6630  0.5418
   10PEO   C251 6911   6.916   0.564   2.554  0.1474 -0.2308 -0.2736
   10PEO   H252 6912   6.870   0.601   2.648  0.6064 -1.0440  0.2816
   10PEO   H253 6913   7.023   0.587   2.565  0.1056 -0.5417  0.9109
   10PEO   O254 6914   6.864   0.627   2.434 -0.2691  0.4656  0.3475
   10PEO   H255 6915   6.850   0.807   2.343  1.9265 -3.2382 -0.2523
   10PEO   H256 6916   6.930   0.811   2.500  1.4655 -0.7387 -1.0197
   10PEO   C257 6917   6.845   0.768   2.445  0.1762 -0.6376  0.7826
   10PEO   C258 6918   6.700   0.803   2.501 -0.0093  0.6570 -0.2798
   10PEO   H259 6919   6.702   0.755   2.600  0.2914  0.9215 -0.1596
   10PEO   H25A 6920   6.692   0.912   2.503 -1.1044  0.5832  1.0741
   10PEO   O25B 6921   6.606   0.746   2.415 -0.0526 -0.2334  0.1701
   10PEO   H25C 6922   6.463   0.652   2.539  0.0216 -1.8929  1.4034
   10PEO   H25D 6923   6.609   0.561   2.513 -1.3082 -2.1087 -0.3128
   10PEO   C25E 6924   6.538   0.628   2.462  0.2101  0.4748  0.7886
   10PEO   C25F 6925   6.471   0.557   2.348 -0.5497  0.1791 -0.1762
   10PEO   H260 6926   6.545   0.532   2.271  0.2604 -1.4670  1.0700
   10PEO   H261 6927   6.420   0.470   2.392  1.8231 -1.1445  0.0890
   10PEO   O262 6928   6.369   0.630   2.290  0.1287 -0.2954  0.0422
   10PEO   H263 6929   6.252   0.476   2.174  2.5176 -2.6016 -0.2282
   10PEO   H264 6930   6.391   0.547   2.106 -1.7954  0.0678 -1.8507
   10PEO   C265 6931   6.307   0.572   2.173 -0.5295 -0.7157  0.1198
   10PEO   C266 6932   6.235   0.683   2.092  0.4106 -0.7032 -0.5428
   10PEO   H267 6933   6.143   0.711   2.145  0.7653 -2.4382  1.1101
   10PEO   H268 6934   6.300   0.772   2.099 -0.6573  0.1207 -0.8436
   10PEO   O269 6935   6.232   0.642   1.954 -0.3689  0.1539 -0.0339
   10PEO   H26A 6936   6.226   0.840   1.860 -0.1557  0.7323 -1.5289
   10PEO   H26B 6937   6.074   0.749   1.911  0.1056 -4.0259  0.2679
   10PEO   C26C 6938   6.174   0.743   1.866  0.5815  0.4057  0.2506
   10PEO   C26D 6939   6.161   0.678   1.722 -0.3157  0.0507  0.0068
   10PEO   H26E 6940   6.136   0.749   1.642  2.3808 -0.2179 -1.1931
   10PEO   H26F 6941   6.262   0.641   1.700 -0.0169 -0.0631  1.4361
   10PEO   O270 6942   6.055   0.579   1.725 -0.2902 -0.0131  0.3264
   10PEO   H271 6943   6.125   0.429   1.600 -0.8584 -1.6418  1.3864
   10PEO   H272 6944   6.063   0.561   1.507  0.8907 -1.3972 -0.3202
   10PEO   C273 6945   6.044   0.504   1.599  0.5865 -0.0030  0.5192
   10PEO   C274 6946   5.907   0.432   1.596 -0.2703  1.1119 -0.8403
   10PEO   H275 6947   5.833   0.510   1.619 -0.5940  0.7639 -0.6964
   10PEO   H276 6948   5.881   0.381   1.502  2.0438 -2.4658  0.2403
   10PEO   O277 6949   5.914   0.321   1.692  0.5385 -0.0798 -0.2121
   10PEO   H278 6950   5.758   0.398   1.812  0.6376  0.1035 -2.1264
   10PEO   H279 6951   5.926   0.408   1.877  0.9634  0.3049 -1.7236
   10PEO   C27A 6952   5.855   0.347   1.819  0.2046 -0.5497  0.0187
   10PEO   C27B 6953   5.841   0.208   1.880  0.3373  0.6537  0.2053
   10PEO   H27C 6954   5.933   0.152   1.860 -0.8140 -1.5263  0.7229
   10PEO   H27D 6955   5.827   0.221   1.989 -1.5578  0.3204  0.0367
   10PEO   O27E 6956   5.725   0.135   1.830 -0.6081  0.3443  0.3574
   10PEO   H27F 6957   5.688   0.052   2.020  1.0353 -2.0435  0.6764
   10PEO   H280 6958   5.739  -0.057   1.887 -2.3323 -0.6605 -0.8900
   10PEO   C281 6959   5.678   0.031   1.913 -0.7324  0.1480  0.3179
   10PEO   C282 6960   5.534  -0.011   1.884 -0.6138  0.5513  0.1187
   10PEO   H283 6961   5.489  -0.061   1.971  0.3326  0.2151  0.4260
   10PEO   H284 6962   5.469   0.074   1.860 -0.7363  0.2704 -0.5569
   10PEO   O285 6963   5.541  -0.093   1.761 -0.1816  0.0823 -0.0089
   10PEO   H286 6964   5.424  -0.110   1.592 -1.2350 -0.4728  0.3304
   10PEO   H287 6965   5.340  -0.034   1.727 -1.2697 -1.2218  1.8685
   10PEO   C288 6966   5.410  -0.115   1.701 -0.2761  0.0147  0.4892
   10PEO   C289 6967   5.361  -0.253   1.756  0.3258 -0.9691  0.2579
   10PEO   H28A 6968   5.272  -0.286   1.701 -0.1332 -3.7634  2.4568
   10PEO   H28B 6969   5.433  -0.333   1.731 -0.0848 -1.0052 -0.8449
   10PEO   O28C 6970   5.325  -0.244   1.896 -0.6549 -0.1996  0.7020
   10PEO   H28D 6971   5.401  -0.425   1.929  1.0836  1.3423 -0.5589
   10PEO   H28E 6972   5.213  -0.424   1.911 -1.0755  0.4605  1.5049
   10PEO   C28F 6973   5.305  -0.373   1.945  0.1317 -0.4415 -0.2931
   10PEO   C290 6974   5.287  -0.368   2.094  0.0513 -0.0027 -0.0454
   10PEO   H291 6975   5.181  -0.346   2.114 -0.0505 -0.1823 -0.3738
   10PEO   H292 6976   5.293  -0.466   2.143 -2.1165  0.4671  1.3224
   10PEO   O293 6977   5.377  -0.286   2.174 -0.3159 -0.0853 -0.0268
   10PEO   H294 6978   5.547  -0.273   2.058 -1.0735 -0.7960 -0.8154
   10PEO   H295 6979   5.530  -0.414   2.170 -1.6337 -0.3674 -0.3019
   10PEO   C296 6980   5.515  -0.306   2.158 -0.2143 -0.1601 -0.3209
   10PEO   C297 6981   5.594  -0.247   2.267  1.6020 -0.4938 -1.0534
   10PEO   H298 6982   5.554  -0.289   2.361  1.2260 -1.2652 -1.5411
   10PEO   H299 6983   5.696  -0.288   2.270  2.2975  1.2176  1.3311
   10PEO   O29A 6984   5.592  -0.106   2.272 -0.2797 -0.2655  0.8310
   10PEO   H29B 6985   5.610  -0.102   2.481  1.7298  1.2696  1.5697
   10PEO   H29C 6986   5.593   0.053   2.405 -1.6584 -0.9846 -1.3002
   10PEO   C29D 6987   5.639  -0.046   2.391 -0.1619 -0.4759 -0.2256
   10PEO   C29E 6988   5.791  -0.038   2.394  0.1298 -0.0088 -0.8246
   10PEO   H29F 6989   5.812  -0.006   2.291 -1.4309  1.2055 -0.8045
   10PEO   H2A0 6990   5.818   0.036   2.471 -3.3355  0.6533 -0.0863
   10PEO   O2A1 6991   5.849  -0.163   2.418  0.0371  0.0549  0.1286
   10PEO   H2A2 6992   5.828  -0.171   2.624 -0.0100 -2.3570  1.8479
   10PEO   H2A3 6993   5.997  -0.125   2.559 -0.8973 -0.1596  0.7715
   10PEO   C2A4 6994   5.906  -0.186   2.549 -0.8068 -0.2545  0.5278
   10PEO   C2A5 6995   5.941  -0.336   2.546  0.7232  0.3178  0.4609
   10PEO   H2A6 6996   6.011  -0.359   2.464 -0.7842  0.7792 -1.0089
   10PEO   H2A7 6997   5.986  -0.368   2.640 -1.3292 -0.6636  1.1547
   10PEO   O2A8 6998   5.816  -0.406   2.535  0.2668 -0.7041  0.1711
   10PEO   H2A9 6999   5.847  -0.607   2.596  3.7773 -2.6346 -1.6124
   10PEO   H2AA 7000   5.914  -0.552   2.439 -0.2811  1.2169 -1.0872
   10PEO   C2AB 7001   5.827  -0.547   2.506  0.6472 -0.4621  0.3281
   10PEO   C2AC 7002   5.701  -0.585   2.423  0.0817  0.3685 -0.0560
   10PEO   H2AD 7003   5.684  -0.511   2.344 -2.6924 -0.4571 -0.3325
   10PEO   H2AE 7004   5.730  -0.686   2.393  0.0072 -0.3503  2.0987
   10PEO   O2AF 7005   5.598  -0.583   2.520  0.5838 -0.2176 -0.1414
   10PEO   H2B0 7006   5.480  -0.715   2.406 -1.2802 -0.8547  0.0346
   10PEO   H2B1 7007   5.424  -0.548   2.400 -0.0665  0.0124 -0.3966
   10PEO   C2B2 7008   5.469  -0.623   2.466 -0.0963 -0.2371 -0.6597
   10PEO   C2B3 7009   5.362  -0.639   2.578  0.9209  0.1981 -1.1074
   10PEO   H2B4 7010   5.336  -0.539   2.617 -0.8905 -0.5989 -0.1792
   10PEO   H2B5 7011   5.277  -0.681   2.522  0.3448 -0.7811  0.4413
   10PEO   O2B6 7012   5.405  -0.726   2.690 -0.3081  0.2664  0.1186
   10PEO   H2B7 7013   5.217  -0.782   2.757 -0.2370  0.4896  2.2465
   10PEO   H2B8 7014   5.288  -0.646   2.842 -1.6681 -1.0454  2.1584
   10PEO   C2B9 7015   5.313  -0.740   2.791  0.4811  0.2716  0.5849
   10PEO   C2BA 7016   5.355  -0.849   2.888  0.5838  0.0140  0.6118
   10PEO   H2BB 7017   5.464  -0.847   2.903  0.3493 -1.9693  3.3411
   10PEO   H2BC 7018   5.322  -0.835   2.992 -1.8083  3.9155 -0.4882
   10PEO   O2BD 7019   5.324  -0.982   2.841  0.0352  0.0864  0.3515
   10PEO   H2BE 7020   5.379  -1.040   2.896  0.1839 -0.0690  0.0398
   11PEO   H001 7021   6.544   3.131   0.560  0.9166  0.6032 -0.4377
   11PEO   H002 7022   6.568   2.992   0.674 -1.8501  0.0088  1.0446
   11PEO   H003 7023   6.545   3.145   0.744  0.7738 -0.5453  0.5123
   11PEO   C004 7024   6.589   3.098   0.655 -0.4110 -0.4519 -0.1405
   11PEO   C005 7025   6.739   3.140   0.654  1.1031  0.3578 -0.0540
   11PEO   H006 7026   6.780   3.109   0.751 -1.7189  1.9898  1.8162
   11PEO   H007 7027   6.790   3.085   0.573  1.6205 -2.2273  1.9081
   11PEO   O008 7028   6.759   3.283   0.648  0.6572 -0.4342  0.0564
   11PEO   H009 7029   6.635   3.319   0.480 -0.5631  1.6911  0.5884
   11PEO   H00A 7030   6.810   3.294   0.447  0.1447  1.4940  0.2829
   11PEO   C00B 7031   6.737   3.339   0.516 -0.2800  0.5446  0.4665
   11PEO   C00C 7032   6.761   3.489   0.525  0.4585 -0.3202  0.1669
   11PEO   H00D 7033   6.867   3.493   0.555  0.8496 -1.1555 -1.0072
   11PEO   H00E 7034   6.760   3.535   0.425  3.6074 -0.5722 -0.1025
   11PEO   O00F 7035   6.679   3.560   0.617 -0.3242 -0.2531 -0.0487
   11PEO   H010 7036   6.585   3.682   0.470 -0.4067 -3.3052 -1.2325
   11PEO   H011 7037   6.532   3.712   0.629 -0.0277  0.7231  0.2679
   11PEO   C012 7038   6.570   3.631   0.566  0.3723  0.3057  1.0263
   11PEO   C013 7039   6.446   3.543   0.538 -0.3182  0.0382 -0.6405
   11PEO   H014 7040   6.359   3.606   0.512  1.9474  3.7835  0.1281
   11PEO   H015 7041   6.458   3.461   0.465 -1.1809  0.2097 -0.9911
   11PEO   O016 7042   6.410   3.475   0.661 -0.8532 -1.1586  0.8280
   11PEO   H017 7043   6.259   3.357   0.749  0.0015 -0.6821 -0.0554
   11PEO   H018 7044   6.229   3.397   0.575 -1.7417  0.5949  0.5239
   11PEO   C019 7045   6.270   3.433   0.671 -0.5895 -0.1804  0.3345
   11PEO   C01A 7046   6.187   3.555   0.709  0.2210  0.5062 -0.7494
   11PEO   H01B 7047   6.260   3.629   0.743 -0.1842  0.1919  0.8784
   11PEO   H01C 7048   6.136   3.593   0.619  0.0871  0.3894 -0.7242
   11PEO   O01D 7049   6.095   3.533   0.815 -0.0677  0.3015  0.0690
   11PEO   H01E 7050   6.010   3.726   0.839  1.4832  2.1008 -0.1047
   11PEO   H01F 7051   6.163   3.688   0.935  0.2341 -1.5802  1.6479
   11PEO   C020 7052   6.068   3.651   0.894 -0.0546  0.8499 -0.1195
   11PEO   C021 7053   5.980   3.602   1.008  0.5703  0.1025 -0.1831
   11PEO   H022 7054   6.036   3.520   1.055 -0.3786  0.8353  2.3500
   11PEO   H023 7055   5.972   3.684   1.081 -2.1371 -0.1668 -0.0793
   11PEO   O024 7056   5.856   3.544   0.964  0.1510  0.1097  0.2013
   11PEO   H025 7057   5.742   3.561   1.143 -0.0529  0.3090  0.8402
   11PEO   H026 7058   5.838   3.411   1.120 -0.8794  0.7924  2.0721
   11PEO   C027 7059   5.774   3.486   1.070 -0.0201  0.5695  0.5874
   11PEO   C028 7060   5.647   3.416   1.010  0.2049 -0.7041 -0.1870
   11PEO   H029 7061   5.669   3.366   0.915 -0.0725  2.9727 -2.3663
   11PEO   H02A 7062   5.599   3.351   1.085 -1.8389 -0.5897 -1.3356
   11PEO   O02B 7063   5.559   3.529   0.981 -0.7284 -0.2177  0.2239
   11PEO   H02C 7064   5.358   3.572   0.944  1.5534  1.7280 -1.1661
   11PEO   H02D 7065   5.403   3.399   0.957  0.7133 -2.2679 -3.8245
   11PEO   C02E 7066   5.436   3.497   0.921  0.1938 -0.2999  0.4344
   11PEO   C02F 7067   5.444   3.492   0.764 -0.0287  0.1720  0.3793
   11PEO   H030 7068   5.550   3.497   0.734  0.2801  2.0207  1.6185
   11PEO   H031 7069   5.391   3.404   0.725 -0.1404 -0.4250  1.7901
   11PEO   O032 7070   5.379   3.600   0.711  0.4274  0.1044 -0.0251
   11PEO   H033 7071   5.413   3.515   0.525 -1.3468  1.1477 -1.8261
   11PEO   H034 7072   5.512   3.651   0.566  1.7496 -3.8720  0.3497
   11PEO   C035 7073   5.408   3.616   0.569  0.0703  0.3942  0.1770
   11PEO   C036 7074   5.299   3.700   0.503 -0.0356  0.9108 -0.0845
   11PEO   H037 7075   5.279   3.780   0.576  0.1531 -1.5974  2.9431
   11PEO   H038 7076   5.338   3.725   0.403  0.2434 -0.8849 -0.4513
   11PEO   O039 7077   5.169   3.633   0.497 -0.8662  0.2782 -0.2452
   11PEO   H03A 7078   5.080   3.767   0.359  0.4716 -1.5694  0.1940
   11PEO   H03B 7079   5.051   3.796   0.535 -0.1706  0.7862 -0.1133
   11PEO   C03C 7080   5.063   3.720   0.456 -0.2912 -0.1685  0.7743
   11PEO   C03D 7081   4.936   3.626   0.442  0.1128  0.2843 -0.1225
   11PEO   H03E 7082   4.855   3.690   0.405  0.4889 -0.3691 -2.2043
   11PEO   H03F 7083   4.948   3.535   0.382 -0.9939  1.5964 -2.4683
   11PEO   O040 7084   4.912   3.593   0.577 -0.2534  0.2411  0.8200
   11PEO   H041 7085   4.822   3.473   0.710  1.7435  0.6246  0.3315
   11PEO   H042 7086   4.787   3.427   0.544  0.8717  1.1323 -1.2116
   11PEO   C043 7087   4.804   3.514   0.610 -0.3412  0.1763  0.4675
   11PEO   C044 7088   4.671   3.587   0.628 -0.4266  0.5488  0.7799
   11PEO   H045 7089   4.593   3.510   0.619 -0.6663  0.7726  0.9419
   11PEO   H046 7090   4.675   3.633   0.728  1.4371 -1.0675  1.5270
   11PEO   O047 7091   4.641   3.674   0.513  0.4480  0.5259 -0.2221
   11PEO   H048 7092   4.507   3.805   0.628 -0.1403  1.0899 -0.3750
   11PEO   H049 7093   4.497   3.807   0.456  0.2936  1.5692 -0.0542
   11PEO   C04A 7094   4.569   3.795   0.538  0.1529  0.3015 -0.0965
   11PEO   C04B 7095   4.667   3.910   0.526 -1.3923  0.0146 -0.3087
   11PEO   H04C 7096   4.628   4.011   0.549 -0.4992  0.9091 -2.5371
   11PEO   H04D 7097   4.741   3.885   0.603  0.0716 -0.9075 -1.9704
   11PEO   O04E 7098   4.716   3.920   0.391  0.2026 -0.2259 -0.5626
   11PEO   H04F 7099   4.906   3.993   0.435 -0.0276  0.5342  0.0600
   11PEO   H050 7100   4.790   4.106   0.470 -2.7999 -0.7573  0.2953
   11PEO   C051 7101   4.810   4.028   0.395 -0.3787 -0.1953  0.2546
   11PEO   C052 7102   4.834   4.078   0.249  0.6408 -0.1193  0.1077
   11PEO   H053 7103   4.831   3.996   0.175 -0.5778  0.7079 -0.7859
   11PEO   H054 7104   4.752   4.148   0.233  0.5503 -0.4634 -1.0432
   11PEO   O055 7105   4.952   4.151   0.250 -0.4246 -0.2115  0.1378
   11PEO   H056 7106   4.929   4.311   0.372 -0.1619 -1.5841  0.3359
   11PEO   H057 7107   4.870   4.342   0.202 -0.2280 -0.5482 -0.0923
   11PEO   C058 7108   4.947   4.295   0.265 -0.1405 -0.1450  0.1022
   11PEO   C059 7109   5.089   4.352   0.233  0.2062  0.1449 -0.1432
   11PEO   H05A 7110   5.091   4.460   0.256 -1.7838  0.6550 -2.0481
   11PEO   H05B 7111   5.171   4.309   0.293  0.0292 -1.5025 -1.0371
   11PEO   O05C 7112   5.115   4.327   0.093  0.7968  0.4182  0.1964
   11PEO   H05D 7113   5.257   4.335  -0.062  1.1466  0.6844  0.2976
   11PEO   H05E 7114   5.323   4.294   0.099  1.1351  1.1382 -0.7673
   11PEO   C05F 7115   5.250   4.358   0.046 -0.5850  0.1833  0.3324
   11PEO   C060 7116   5.281   4.510   0.050  0.3209 -0.1020  0.6128
   11PEO   H061 7117   5.252   4.549   0.149  1.7796 -3.5715  2.6195
   11PEO   H062 7118   5.390   4.523   0.052  0.1992  0.9150  1.0620
   11PEO   O063 7119   5.224   4.575  -0.064  0.5639 -0.5733 -0.0183
   11PEO   H064 7120   5.198   4.752  -0.172  0.0442  2.5192  0.3407
   11PEO   H065 7121   5.368   4.707  -0.139 -0.7957  3.9910 -1.6819
   11PEO   C066 7122   5.267   4.713  -0.095 -0.4208  0.7731 -0.0734
   11PEO   C067 7123   5.258   4.795   0.034  0.2543  0.4750 -0.0723
   11PEO   H068 7124   5.262   4.903   0.010 -0.6273  1.5465  3.8453
   11PEO   H069 7125   5.163   4.790   0.088 -1.3639  0.3368 -2.7275
   11PEO   O06A 7126   5.382   4.773   0.101  0.2174 -0.0865  0.4968
   11PEO   H06B 7127   5.352   4.905   0.261  1.7027  0.5001  2.4356
   11PEO   H06C 7128   5.464   4.968   0.136  0.7594  0.2159  1.8997
   11PEO   C06D 7129   5.430   4.877   0.189 -0.2483 -0.2496  0.4947
   11PEO   C06E 7130   5.537   4.821   0.284  0.5740 -0.0075 -0.1873
   11PEO   H06F 7131   5.598   4.742   0.239 -0.9724 -2.3662  1.6338
   11PEO   H070 7132   5.605   4.905   0.306  0.4060  1.0868 -3.3360
   11PEO   O071 7133   5.483   4.772   0.411  0.1276 -0.3712  0.7973
   11PEO   H072 7134   5.515   4.593   0.373  0.6205  1.7406 -1.4086
   11PEO   H073 7135   5.354   4.626   0.308  0.2292  1.2323 -0.7027
   11PEO   C074 7136   5.420   4.645   0.393 -0.5203 -0.7770  0.3941
   11PEO   C075 7137   5.346   4.594   0.521  0.5058 -0.9004  0.5523
   11PEO   H076 7138   5.329   4.485   0.521  0.6553 -0.9453  2.1698
   11PEO   H077 7139   5.407   4.619   0.609 -0.2476  0.0020  0.8360
   11PEO   O078 7140   5.219   4.667   0.532 -1.0102  0.4064  0.0661
   11PEO   H079 7141   5.236   4.689   0.740 -2.9791 -1.1919  2.9240
   11PEO   H07A 7142   5.141   4.549   0.689  0.5535 -0.0126 -0.1857
   11PEO   C07B 7143   5.164   4.654   0.664 -0.1051  0.0203 -0.7048
   11PEO   C07C 7144   5.043   4.756   0.682 -0.4621  0.3687  0.1745
   11PEO   H07D 7145   5.008   4.745   0.786 -1.3489 -1.5001 -0.2915
   11PEO   H07E 7146   5.085   4.854   0.653  2.0239 -0.5829  0.3036
   11PEO   O07F 7147   4.935   4.710   0.602 -0.3219  0.4317 -0.2489
   11PEO   H080 7148   5.024   4.722   0.411 -1.4753 -0.9732 -1.5184
   11PEO   H081 7149   4.949   4.868   0.449  1.6794 -0.6491 -1.0062
   11PEO   C082 7150   4.938   4.760   0.467  0.0473 -0.2765  0.4768
   11PEO   C083 7151   4.822   4.699   0.386  0.1331 -0.8626  0.0597
   11PEO   H084 7152   4.853   4.706   0.280 -0.8719 -1.3608 -0.2890
   11PEO   H085 7153   4.820   4.592   0.414  1.3817 -0.9202 -0.0377
   11PEO   O086 7154   4.709   4.783   0.419  0.4593  0.0255  0.0356
   11PEO   H087 7155   4.532   4.678   0.389  2.1679 -1.3307  0.2142
   11PEO   H088 7156   4.598   4.766   0.244 -2.3296  1.7686 -0.2330
   11PEO   C089 7157   4.585   4.768   0.353 -0.0424  0.0106  0.1251
   11PEO   C08A 7158   4.501   4.890   0.374 -0.5326  0.3410 -0.5682
   11PEO   H08B 7159   4.436   4.898   0.285  0.4037  0.8220 -1.2303
   11PEO   H08C 7160   4.445   4.871   0.467  0.3213  1.8960  0.3039
   11PEO   O08D 7161   4.574   5.014   0.403  0.4177  0.5038 -0.5822
   11PEO   H08E 7162   4.567   5.195   0.515  2.6978 -1.6047  0.1907
   11PEO   H08F 7163   4.490   5.052   0.585  1.5466  0.9535  0.4836
   11PEO   C090 7164   4.505   5.107   0.491 -0.2086  0.3851 -0.1810
   11PEO   C091 7165   4.372   5.150   0.433 -0.4176 -0.2878  0.1665
   11PEO   H092 7166   4.365   5.257   0.455  3.1554  0.0456  0.2369
   11PEO   H093 7167   4.382   5.134   0.324  2.2469 -2.2495  0.5823
   11PEO   O094 7168   4.261   5.071   0.488  0.4388  0.6787 -0.2481
   11PEO   H095 7169   4.110   5.113   0.339  1.5752 -1.8306 -0.2390
   11PEO   H096 7170   4.117   5.222   0.487 -1.3667 -0.8141  1.2968
   11PEO   C097 7171   4.127   5.120   0.447 -0.0396 -0.1992 -0.0411
   11PEO   C098 7172   4.017   5.033   0.510  0.0138  0.1128 -0.0945
   11PEO   H099 7173   3.920   5.060   0.465 -0.3085 -0.7235  0.0833
   11PEO   H09A 7174   4.042   4.927   0.492  1.9046  0.5458 -0.2905
   11PEO   O09B 7175   4.023   5.055   0.652  0.0784 -0.6230  0.5052
   11PEO   H09C 7176   3.878   4.909   0.688  0.6863  0.6017 -1.2566
   11PEO   H09D 7177   3.836   5.083   0.726 -0.1365 -0.1558 -0.3448
   11PEO   C09E 7178   3.914   5.005   0.727  0.1659  0.1491  0.4192
   11PEO   C09F 7179   3.970   4.993   0.867 -0.1005  0.8818 -0.7793
   11PEO   H0A0 7180   4.040   5.075   0.884 -1.0195  1.2364  1.6544
   11PEO   H0A1 7181   3.891   4.982   0.943  1.7351 -3.0044  0.8554
   11PEO   O0A2 7182   4.042   4.864   0.869  0.4568 -0.2694 -0.2481
   11PEO   H0A3 7183   4.117   4.710   0.992 -1.0106 -0.2535 -0.6507
   11PEO   H0A4 7184   4.012   4.839   1.072 -1.9884 -0.0600 -1.9710
   11PEO   C0A5 7185   4.090   4.816   0.998  0.6567  0.1452  0.5436
   11PEO   C0A6 7186   4.218   4.886   1.055 -0.3844  0.0018 -0.4625
   11PEO   H0A7 7187   4.237   4.993   1.043  0.8041  0.1734  2.2323
   11PEO   H0A8 7188   4.229   4.872   1.164 -1.0778  1.9004 -0.1181
   11PEO   O0A9 7189   4.331   4.830   0.980 -0.2903  0.2457  0.3625
   11PEO   H0AA 7190   4.356   4.988   0.841 -0.7820  0.0666 -2.2217
   11PEO   H0AB 7191   4.278   4.838   0.778  0.8444  1.1938 -0.5602
   11PEO   C0AC 7192   4.355   4.878   0.846  1.0260  0.0794 -0.0812
   11PEO   C0AD 7193   4.482   4.824   0.787  0.2792  0.5709 -0.1620
   11PEO   H0AE 7194   4.504   4.719   0.807  0.2868  0.6346  0.1702
   11PEO   H0AF 7195   4.476   4.823   0.677 -1.4058 -3.7449 -0.2310
   11PEO   O0B0 7196   4.595   4.897   0.834 -0.3168  0.2014  0.9544
   11PEO   H0B1 7197   4.701   4.848   0.661 -0.3397  0.9439 -0.7416
   11PEO   H0B2 7198   4.769   4.785   0.819 -0.2798 -0.4771  0.0938
   11PEO   C0B3 7199   4.719   4.868   0.767  0.1866 -0.5750 -0.5205
   11PEO   C0B4 7200   4.823   4.994   0.775  1.0707 -0.2202 -0.4682
   11PEO   H0B5 7201   4.874   5.024   0.683  0.5501  1.6012 -0.1947
   11PEO   H0B6 7202   4.764   5.082   0.804  0.5828 -0.9940  1.0266
   11PEO   O0B7 7203   4.922   4.982   0.885  0.3921  0.4268 -0.6700
   11PEO   H0B8 7204   4.826   4.903   1.057  0.3534 -0.4957  0.2874
   11PEO   H0B9 7205   4.810   5.079   1.022 -2.6495 -1.8717  3.1059
   11PEO   C0BA 7206   4.878   4.993   1.021 -0.3383 -0.2188 -0.0431
   11PEO   C0BB 7207   5.008   4.997   1.107 -0.4926  0.0796  0.7143
   11PEO   H0BC 7208   4.974   5.002   1.211 -1.2672  1.1211  0.4294
   11PEO   H0BD 7209   5.058   4.900   1.094 -0.9722  0.0562 -1.3892
   11PEO   O0BE 7210   5.102   5.100   1.066 -0.3830 -0.2766  0.6293
   11PEO   H0BF 7211   5.205   5.153   1.252  2.4737  1.5226  0.6527
   11PEO   H0C0 7212   5.275   5.204   1.099  3.8725 -0.6751  2.8981
   11PEO   C0C1 7213   5.225   5.120   1.149  0.2229 -0.0209  0.6364
   11PEO   C0C2 7214   5.329   5.012   1.142  0.0099  0.0172  0.4255
   11PEO   H0C3 7215   5.344   4.995   1.035 -1.0568  2.3271 -0.1637
   11PEO   H0C4 7216   5.426   5.048   1.180  0.5710 -1.4425  0.4265
   11PEO   O0C5 7217   5.300   4.893   1.213 -0.3498 -0.3377  0.6450
   11PEO   H0C6 7218   5.220   4.844   1.397  1.0520  1.6995  1.5048
   11PEO   H0C7 7219   5.275   5.010   1.378  0.4637  0.2363 -0.4797
   11PEO   C0C8 7220   5.298   4.906   1.350  0.6660  0.4214 -1.0207
   11PEO   C0C9 7221   5.441   4.874   1.402  0.2776 -0.0597  0.1014
   11PEO   H0CA 7222   5.428   4.860   1.510  1.4114  1.0698  0.4134
   11PEO   H0CB 7223   5.479   4.775   1.375  0.4144 -0.4272  1.5422
   11PEO   O0CC 7224   5.530   4.986   1.378  0.1465  0.2924 -0.4048
   11PEO   H0CD 7225   5.685   4.865   1.418 -0.0456 -0.8262  1.7342
   11PEO   H0CE 7226   5.643   4.979   1.552 -1.3142  0.5542  0.1622
   11PEO   C0CF 7227   5.655   4.967   1.443  0.0161 -0.4550  0.3882
   11PEO   C0D0 7228   5.748   5.075   1.380  0.6033 -1.2034  0.9465
   11PEO   H0D1 7229   5.850   5.044   1.408  2.2122  0.1398 -2.7173
   11PEO   H0D2 7230   5.730   5.096   1.274 -0.1553  0.1983  1.3396
   11PEO   O0D3 7231   5.721   5.201   1.442  0.7389  0.5494  0.3810
   11PEO   H0D4 7232   5.829   5.310   1.310 -1.9626 -1.0680  0.0765
   11PEO   H0D5 7233   5.910   5.277   1.470 -0.5350 -1.7521  2.4707
   11PEO   C0D6 7234   5.815   5.302   1.419  0.9280  0.5108  0.6556
   11PEO   C0D7 7235   5.756   5.435   1.472 -0.5369  0.2906 -0.0347
   11PEO   H0D8 7236   5.812   5.514   1.420  1.4323 -2.0537 -1.7220
   11PEO   H0D9 7237   5.651   5.446   1.442 -0.1924  3.1690 -0.4360
   11PEO   O0DA 7238   5.772   5.445   1.614 -0.1332  0.4020  0.2736
   11PEO   H0DB 7239   5.718   5.558   1.786  1.6304  0.6277 -0.2656
   11PEO   H0DC 7240   5.599   5.563   1.656 -0.8881 -2.2139 -2.2299
   11PEO   C0DD 7241   5.707   5.564   1.677 -1.2169  0.2560 -0.0987
   11PEO   C0DE 7242   5.776   5.694   1.635  0.2097  0.0811  1.0053
   11PEO   H0DF 7243   5.764   5.778   1.705 -1.1261  0.6195  0.1607
   11PEO   H0E0 7244   5.882   5.665   1.630 -0.3149 -2.0642  1.2944
   11PEO   O0E1 7245   5.733   5.737   1.504  0.1852  0.0448 -0.2763
   11PEO   H0E2 7246   5.604   5.912   1.561 -1.8474 -0.2978  1.5182
   11PEO   H0E3 7247   5.528   5.763   1.541  0.9235  0.6847  1.0391
   11PEO   C0E4 7248   5.614   5.820   1.501  0.7102  0.5866  0.4329
   11PEO   C0E5 7249   5.585   5.850   1.355  0.1782 -0.3999 -0.1351
   11PEO   H0E6 7250   5.639   5.779   1.291  0.8338 -0.0955  0.0720
   11PEO   H0E7 7251   5.479   5.836   1.329 -0.9180 -0.8756  3.9716
   11PEO   O0E8 7252   5.621   5.990   1.326 -0.7870 -0.3035 -0.1142
   11PEO   H0E9 7253   5.550   5.973   1.138 -0.5075  0.8942  1.3672
   11PEO   H0EA 7254   5.731   5.982   1.150 -0.1949 -1.2735 -0.2536
   11PEO   C0EB 7255   5.635   6.021   1.189  0.5761 -0.0024  0.4530
   11PEO   C0EC 7256   5.625   6.168   1.158  0.4121 -0.5794  0.0924
   11PEO   H0ED 7257   5.617   6.176   1.049 -0.3144 -0.6187  0.1419
   11PEO   H0EE 7258   5.532   6.198   1.208 -0.0010 -1.3551 -0.1964
   11PEO   O0EF 7259   5.745   6.235   1.205  0.1935 -0.8313  0.5933
   11PEO   H0F0 7260   5.798   6.135   1.391  3.1124 -0.1922 -1.3968
   11PEO   H0F1 7261   5.696   6.285   1.397 -0.8996  1.5990 -1.9474
   11PEO   C0F2 7262   5.779   6.234   1.347  0.2502  0.4426  0.8978
   11PEO   C0F3 7263   5.912   6.312   1.369 -0.9069  0.2431  0.0724
   11PEO   H0F4 7264   5.907   6.417   1.338 -2.3152 -0.2645 -1.5825
   11PEO   H0F5 7265   5.926   6.307   1.478  1.8152  0.4574 -0.1893
   11PEO   O0F6 7266   6.013   6.231   1.308  0.4863 -0.2140 -0.4266
   11PEO   H0F7 7267   5.963   6.225   1.111 -0.7513 -2.0639  1.2682
   11PEO   H0F8 7268   6.138   6.187   1.158  2.0727  2.4314  0.4608
   11PEO   C0F9 7269   6.051   6.254   1.169 -0.0453  0.0650 -0.7308
   11PEO   C0FA 7270   6.096   6.400   1.138 -0.6968 -0.2758  0.1762
   11PEO   H0FB 7271   6.134   6.403   1.035 -3.3591  2.3146 -0.8742
   11PEO   H0FC 7272   6.004   6.459   1.136 -0.8390 -0.2818  3.2144
   11PEO   O0FD 7273   6.196   6.444   1.230  0.3094  0.0018 -0.1347
   11PEO   H0FE 7274   6.211   6.643   1.279  3.5174  0.4485  1.7751
   11PEO   H0FF 7275   6.207   6.611   1.107 -1.4482  0.4150  0.2111
   11PEO   C100 7276   6.243   6.570   1.202  0.0315  0.7470 -0.1909
   11PEO   C101 7277   6.399   6.578   1.197 -0.3314 -0.2480  0.0086
   11PEO   H102 7278   6.441   6.505   1.126 -0.4992 -2.6975  2.2996
   11PEO   H103 7279   6.426   6.676   1.155 -0.9906 -0.0314  0.0741
   11PEO   O104 7280   6.456   6.581   1.328  0.8616  0.0498 -0.3385
   11PEO   H105 7281   6.599   6.718   1.290 -2.5289 -0.1058  1.4860
   11PEO   H106 7282   6.655   6.543   1.265 -1.6232  0.1810 -2.3985
   11PEO   C107 7283   6.599   6.614   1.328 -0.0604 -0.6812  0.1231
   11PEO   C108 7284   6.650   6.605   1.471 -0.0515 -0.4799  0.5786
   11PEO   H109 7285   6.596   6.530   1.530 -1.3532  0.1197  0.2012
   11PEO   H10A 7286   6.755   6.575   1.483 -0.1154 -0.8875  0.1321
   11PEO   O10B 7287   6.634   6.740   1.527  0.4254  0.5061 -0.2817
   11PEO   H10C 7288   6.781   6.695   1.645  0.0386 -0.1818 -2.5625
   11PEO   H10D 7289   6.631   6.675   1.730  1.0672  0.3980  1.0403
   11PEO   C10E 7290   6.683   6.744   1.661  0.5101  0.0235  0.2352
   11PEO   C10F 7291   6.694   6.894   1.725  0.4045 -0.0458 -0.1537
   11PEO   H110 7292   6.743   6.891   1.823 -2.5333 -2.3551  1.4080
   11PEO   H111 7293   6.739   6.970   1.660 -2.6240  1.1887 -1.0038
   11PEO   O112 7294   6.565   6.936   1.759  0.0789 -0.1409 -0.1050
   11PEO   H113 7295   6.613   7.147   1.737  1.7555  0.5344  1.1538
   11PEO   H114 7296   6.620   7.097   1.906  0.9311  2.2422 -0.4176
   11PEO   C115 7297   6.571   7.077   1.810  0.6490  0.1056  0.1262
   11PEO   C116 7298   6.415   7.108   1.822 -0.3450  0.2283 -0.6976
   11PEO   H117 7299   6.394   7.215   1.802 -0.9410 -0.1937 -2.4850
   11PEO   H118 7300   6.366   7.050   1.743 -0.4872  0.5237 -0.8297
   11PEO   O119 7301   6.364   7.067   1.957  0.3612  0.1579  0.1305
   11PEO   H11A 7302   6.177   7.044   1.866 -1.5258  0.4294  0.4058
   11PEO   H11B 7303   6.212   7.189   1.966  3.2092  0.5605  0.5202
   11PEO   C11C 7304   6.220   7.079   1.961 -0.7043  0.1412  0.1511
   11PEO   C11D 7305   6.179   7.015   2.090  0.0267 -0.0252 -0.4788
   11PEO   H11E 7306   6.230   7.062   2.176 -1.8128  0.5753  0.3425
   11PEO   H11F 7307   6.071   7.030   2.105  0.0124  0.0121 -0.6160
   11PEO   O120 7308   6.198   6.870   2.082 -0.4198  0.1829 -0.2414
   11PEO   H121 7309   6.032   6.833   2.207 -0.0351 -0.0885 -1.1071
   11PEO   H122 7310   6.203   6.850   2.277  5.3218 -0.0011 -3.5635
   11PEO   C123 7311   6.139   6.808   2.198  0.1276  0.0854  0.0875
   11PEO   C124 7312   6.138   6.660   2.195  0.3650  0.0660  0.6571
   11PEO   H125 7313   6.240   6.621   2.187 -0.3757 -1.7169 -0.8109
   11PEO   H126 7314   6.111   6.622   2.294  1.0573 -2.4647 -0.0464
   11PEO   O127 7315   6.043   6.608   2.105 -0.2085  0.3826  0.6945
   11PEO   H128 7316   6.039   6.421   2.204  0.4206 -1.0251  0.4172
   11PEO   H129 7317   6.125   6.417   2.049 -1.0254  0.4866 -0.1829
   11PEO   C12A 7318   6.041   6.464   2.103 -0.6577  0.0317  0.8134
   11PEO   C12B 7319   5.907   6.433   2.043 -0.2339 -0.1619  0.6063
   11PEO   H12C 7320   5.876   6.331   2.070 -1.3471  0.2487  0.9292
   11PEO   H12D 7321   5.820   6.495   2.071 -0.9854 -0.1138 -1.6041
   11PEO   O12E 7322   5.910   6.440   1.899 -0.2416  0.2990  0.4367
   11PEO   H12F 7323   5.791   6.463   1.731  0.8958 -0.3842  0.2989
   11PEO   H130 7324   5.705   6.491   1.891 -0.7331  0.2855  0.1552
   11PEO   C131 7325   5.782   6.433   1.836 -0.7541  0.0967  0.3232
   11PEO   C132 7326   5.744   6.283   1.821  0.2979  0.6567  0.3896
   11PEO   H133 7327   5.671   6.276   1.739  0.1616  3.9132  0.1042
   11PEO   H134 7328   5.832   6.221   1.799 -0.4923  0.2241 -1.7697
   11PEO   O135 7329   5.678   6.241   1.944  0.5895  0.1780  0.0769
   11PEO   H136 7330   5.705   6.030   1.948 -1.5975 -3.3178  1.9685
   11PEO   H137 7331   5.554   6.077   1.885  1.8183 -1.1213 -0.4026
   11PEO   C138 7332   5.627   6.106   1.962  0.8555 -0.2071  0.1815
   11PEO   C139 7333   5.569   6.098   2.107 -0.1275  0.7912 -0.3754
   11PEO   H13A 7334   5.585   5.999   2.152  1.2021  1.0558 -0.2059
   11PEO   H13B 7335   5.609   6.174   2.176  3.0506 -0.6240 -0.4946
   11PEO   O13C 7336   5.426   6.124   2.095  0.0218 -0.0222  0.3001
   11PEO   H13D 7337   5.375   5.970   2.229  0.0728  0.9054 -0.1127
   11PEO   H13E 7338   5.339   5.950   2.054  1.4405  1.7976 -2.4153
   11PEO   C13F 7339   5.341   6.021   2.138 -0.0574 -0.1313 -0.6566
   11PEO   C140 7340   5.205   6.081   2.157 -0.0352 -0.3402 -0.3754
   11PEO   H141 7341   5.173   6.150   2.077 -1.3688 -0.4950  0.0100
   11PEO   H142 7342   5.141   5.994   2.140  2.0508 -1.9641 -0.3813
   11PEO   O143 7343   5.198   6.139   2.286 -0.0588 -0.1073 -0.4729
   11PEO   H144 7344   4.990   6.159   2.291  0.6282 -0.9606  3.0583
   11PEO   H145 7345   5.082   6.296   2.211  3.6157  1.0992  0.6381
   11PEO   C146 7346   5.082   6.219   2.290  0.0783  0.0462 -0.1888
   11PEO   C147 7347   5.084   6.309   2.417  0.2654 -0.3381  0.2699
   11PEO   H148 7348   5.183   6.354   2.433  0.7170 -1.4565  0.7631
   11PEO   H149 7349   5.024   6.394   2.380  1.1205 -0.8470 -2.5399
   11PEO   O14A 7350   5.031   6.233   2.527 -0.1596 -0.0162  0.6914
   11PEO   H14B 7351   5.077   6.373   2.673 -0.7982 -1.1831  0.4090
   11PEO   H14C 7352   4.962   6.246   2.719  1.6693  1.0760  1.5129
   11PEO   C14D 7353   4.992   6.313   2.638 -0.9362 -0.3247 -0.7786
   11PEO   C14E 7354   4.876   6.403   2.606 -0.6744 -0.6620 -0.6074
   11PEO   H14F 7355   4.815   6.350   2.532  1.8812 -1.8910 -1.9609
   11PEO   H150 7356   4.807   6.419   2.691 -2.4302 -0.2497 -2.0525
   11PEO   O151 7357   4.915   6.528   2.547 -0.1933 -0.4732 -0.1819
   11PEO   H152 7358   5.056   6.672   2.617 -0.1396  0.7678 -0.1295
   11PEO   H153 7359   4.996   6.565   2.745  0.2889  1.1559  1.3906
   11PEO   C154 7360   4.969   6.614   2.650  0.9445 -0.7717  0.1507
   11PEO   C155 7361   4.850   6.704   2.700  0.5265 -0.3125 -0.3455
   11PEO   H156 7362   4.887   6.804   2.730 -1.4703  1.7046 -3.9284
   11PEO   H157 7363   4.777   6.712   2.618  2.5118  0.6138 -2.1070
   11PEO   O158 7364   4.792   6.640   2.814 -1.1304 -0.3051 -0.0154
   11PEO   H159 7365   4.638   6.769   2.892 -0.4971  0.9277 -1.4329
   11PEO   H15A 7366   4.640   6.608   2.958  2.3414  1.0191  0.6826
   11PEO   C15B 7367   4.658   6.665   2.865  0.0237  0.6550 -0.0571
   11PEO   C15C 7368   4.548   6.625   2.761 -0.7083 -0.4679 -0.4828
   11PEO   H15D 7369   4.454   6.678   2.783 -0.3836  0.7152 -1.7411
   11PEO   H15E 7370   4.580   6.665   2.663  1.4163 -1.6982 -0.3472
   11PEO   O15F 7371   4.535   6.489   2.766  0.3750  0.8487  0.2275
   11PEO   H160 7372   4.436   6.446   2.583  0.3745  0.5951 -0.0789
   11PEO   H161 7373   4.339   6.464   2.740  0.6879  1.5011 -0.3710
   11PEO   C162 7374   4.430   6.426   2.691  0.4287  0.4955 -0.0941
   11PEO   C163 7375   4.446   6.274   2.701  0.1303 -0.3931 -0.1814
   11PEO   H164 7376   4.498   6.247   2.795 -0.0274  0.6920  0.2297
   11PEO   H165 7377   4.344   6.233   2.697 -0.5369  0.9506  1.5266
   11PEO   O166 7378   4.525   6.224   2.597 -0.1864  0.0955 -0.8558
   11PEO   H167 7379   4.500   6.028   2.656  2.5042 -0.8490 -0.4266
   11PEO   H168 7380   4.589   6.062   2.496  1.1681  0.2136  1.3967
   11PEO   C169 7381   4.504   6.086   2.563 -0.1282 -0.0142 -0.1125
   11PEO   C16A 7382   4.377   6.062   2.476  1.0613 -0.0667  0.1044
   11PEO   H16B 7383   4.371   6.136   2.395  1.0837  0.2400  0.3826
   11PEO   H16C 7384   4.394   5.965   2.426  1.4129  0.8509 -1.6177
   11PEO   O16D 7385   4.258   6.060   2.559  0.2527  0.2367  0.2326
   11PEO   H16E 7386   4.130   5.941   2.435 -0.0894  0.1473 -0.0388
   11PEO   H16F 7387   4.150   6.108   2.396  2.6534 -0.4943 -0.0662
   11PEO   C170 7388   4.145   6.039   2.481  0.6699 -0.0806  0.2047
   11PEO   C171 7389   4.025   6.078   2.574 -0.6462 -0.2432  0.1450
   11PEO   H172 7390   4.043   6.180   2.613  2.4857  0.1313 -1.9942
   11PEO   H173 7391   3.936   6.075   2.509 -0.9087  1.5937  0.3625
   11PEO   O174 7392   4.004   5.989   2.686 -0.1903  0.3262 -0.3202
   11PEO   H175 7393   3.809   6.016   2.715 -0.5658 -2.4785  0.9976
   11PEO   H176 7394   3.910   6.132   2.809  0.5506 -0.3040  1.9436
   11PEO   C177 7395   3.898   6.027   2.779  0.1878  0.3382 -0.3477
   11PEO   C178 7396   3.900   5.914   2.892 -0.9212  0.3990 -0.2589
   11PEO   H179 7397   3.803   5.905   2.943 -0.7218 -1.1873 -0.1340
   11PEO   H17A 7398   3.922   5.818   2.844  0.0433  0.9094 -0.8822
   11PEO   O17B 7399   4.007   5.947   2.982  0.1045 -0.9803  0.1416
   11PEO   H17C 7400   3.906   5.979   3.155 -0.4876 -0.7462  1.6487
   11PEO   H17D 7401   3.939   6.131   3.067  1.8970  1.1868  2.9877
   11PEO   C17E 7402   3.979   6.031   3.091 -1.3444 -0.9305  0.5008
   11PEO   C17F 7403   4.107   6.069   3.176  0.0139  0.4596  0.4382
   11PEO   H180 7404   4.192   6.073   3.106  0.6174 -0.6699  1.0853
   11PEO   H181 7405   4.099   6.173   3.212  0.5812  1.0287 -0.9725
   11PEO   O182 7406   4.112   5.965   3.270  0.0484 -0.1040  0.4117
   11PEO   H183 7407   4.315   5.982   3.273  1.1011 -1.0110  0.6518
   11PEO   H184 7408   4.242   5.853   3.375 -0.6924  0.1217 -0.5860
   11PEO   C185 7409   4.235   5.958   3.345  0.4020  0.5119  0.4215
   11PEO   C186 7410   4.240   6.046   3.471 -0.1857 -0.0124  0.0932
   11PEO   H187 7411   4.342   6.034   3.510  0.2385  0.9731 -0.6643
   11PEO   H188 7412   4.212   6.152   3.458  0.9617  1.4490  6.2881
   11PEO   O189 7413   4.165   5.998   3.581 -0.3247  0.4982 -0.3897
   11PEO   H18A 7414   4.118   6.175   3.689 -0.1541  0.4636  1.3649
   11PEO   H18B 7415   4.285   6.143   3.698  0.4625  0.1695  2.6998
   11PEO   C18C 7416   4.189   6.090   3.694  0.2354  0.6713 -0.1668
   11PEO   C18D 7417   4.175   6.014   3.827  0.4517  0.2054  0.3391
   11PEO   H18E 7418   4.178   6.092   3.904 -3.1756 -0.0499  0.9036
   11PEO   H18F 7419   4.071   5.977   3.831  1.2459 -2.1462  0.7782
   11PEO   O190 7420   4.283   5.911   3.844 -0.1938  0.3559 -0.5108
   11PEO   H191 7421   4.420   6.014   3.951  0.3914  4.0630 -1.8024
   11PEO   H192 7422   4.437   6.029   3.769 -0.1423 -1.7651 -1.7535
   11PEO   C193 7423   4.418   5.962   3.854  0.2383  0.2862  0.0352
   11PEO   C194 7424   4.512   5.831   3.844  0.4077  0.2862  0.5208
   11PEO   H195 7425   4.601   5.847   3.906 -1.2516 -0.1381  3.1620
   11PEO   H196 7426   4.464   5.744   3.891 -0.5837  0.9189  0.6884
   11PEO   O197 7427   4.539   5.806   3.709  0.0096 -0.0332  0.1944
   11PEO   H198 7428   4.344   5.830   3.623  0.6512  1.2833 -0.4076
   11PEO   H199 7429   4.396   5.672   3.702  0.3719 -1.0237 -1.6952
   11PEO   C19A 7430   4.425   5.757   3.639  0.1481  0.9397  0.6808
   11PEO   C19B 7431   4.463   5.700   3.501 -0.2759 -0.4676  0.3272
   11PEO   H19C 7432   4.548   5.631   3.516  1.9655  2.2652  1.1385
   11PEO   H19D 7433   4.371   5.656   3.460 -0.2990  0.0146 -0.1522
   11PEO   O19E 7434   4.488   5.816   3.417  0.7042  0.4157  0.8795
   11PEO   H19F 7435   4.626   5.705   3.318 -3.3807  0.6682 -1.6050
   11PEO   H1A0 7436   4.693   5.839   3.412 -0.2766 -2.5040  0.7016
   11PEO   C1A1 7437   4.613   5.811   3.342 -1.0402  0.6133  0.2064
   11PEO   C1A2 7438   4.596   5.907   3.226  0.3626  0.3320 -0.0813
   11PEO   H1A3 7439   4.521   5.982   3.254 -1.4920 -1.8295  1.1657
   11PEO   H1A4 7440   4.693   5.957   3.211  0.3528  0.3485 -0.0906
   11PEO   O1A5 7441   4.539   5.833   3.118  0.5384  0.9589  0.0209
   11PEO   H1A6 7442   4.591   5.867   2.930 -1.1659 -0.6763 -1.2565
   11PEO   H1A7 7443   4.555   6.014   3.023  2.0925 -0.0842 -3.1192
   11PEO   C1A8 7444   4.522   5.910   3.005  0.2740 -0.1435 -0.1949
   11PEO   C1A9 7445   4.371   5.907   2.946  0.6539 -0.2674 -0.0645
   11PEO   H1AA 7446   4.298   5.901   3.027  1.4619  2.5970  0.9958
   11PEO   H1AB 7447   4.350   6.005   2.899 -2.8915 -1.6454 -1.7447
   11PEO   O1AC 7448   4.361   5.799   2.853  0.2488 -0.0025 -0.0611
   11PEO   H1AD 7449   4.204   5.901   2.785  1.1806  1.0371  1.7132
   11PEO   H1AE 7450   4.160   5.737   2.852  1.8878 -2.9511 -0.5427
   11PEO   C1AF 7451   4.233   5.795   2.792  0.1196  0.6304  0.5028
   11PEO   C1B0 7452   4.248   5.741   2.656  0.9502  1.1166 -0.1856
   11PEO   H1B1 7453   4.165   5.753   2.585  1.2885  0.4234 -0.7166
   11PEO   H1B2 7454   4.328   5.786   2.597 -0.0766  2.8878 -0.2945
   11PEO   O1B3 7455   4.261   5.595   2.658  0.4327 -0.1513 -0.2925
   11PEO   H1B4 7456   4.066   5.567   2.584 -2.1086 -2.5301  0.5530
   11PEO   H1B5 7457   4.087   5.562   2.764 -0.0290 -0.3725  0.8684
   11PEO   C1B6 7458   4.131   5.536   2.667 -0.5773  0.1354  0.4796
   11PEO   C1B7 7459   4.139   5.385   2.661  0.2912 -0.1723 -0.3799
   11PEO   H1B8 7460   4.206   5.350   2.740  0.5376  0.2735 -0.3877
   11PEO   H1B9 7461   4.037   5.343   2.662  0.6213 -0.9641  0.0871
   11PEO   O1BA 7462   4.205   5.361   2.541 -0.2397 -0.3636  0.2402
   11PEO   H1BB 7463   4.095   5.188   2.465  0.6481 -0.1663 -3.7969
   11PEO   H1BC 7464   4.223   5.163   2.581 -1.4084  0.5235  0.6663
   11PEO   C1BD 7465   4.194   5.226   2.496 -0.6652  0.4633  0.3648
   11PEO   C1BE 7466   4.294   5.212   2.377 -0.4323  0.4139  0.0631
   11PEO   H1BF 7467   4.289   5.116   2.323  0.0918 -0.7976  2.0938
   11PEO   H1C0 7468   4.275   5.293   2.305  1.6095  0.6878 -0.2211
   11PEO   O1C1 7469   4.425   5.231   2.438  0.3854  0.0876  0.1255
   11PEO   H1C2 7470   4.513   5.043   2.475 -2.0156  0.7079 -1.5826
   11PEO   H1C3 7471   4.422   5.109   2.614  0.3672 -0.0975  0.6088
   11PEO   C1C4 7472   4.483   5.135   2.527 -0.5690  0.3126  0.0674
   11PEO   C1C5 7473   4.610   5.197   2.582  0.7460  0.7550  0.8271
   11PEO   H1C6 7474   4.685   5.123   2.614  0.1281 -1.1271 -1.7399
   11PEO   H1C7 7475   4.656   5.266   2.510 -1.7809  0.4270 -1.2221
   11PEO   O1C8 7476   4.577   5.271   2.698 -0.3275  0.6195  0.6189
   11PEO   H1C9 7477   4.442   5.413   2.777 -2.3177  1.6560 -1.8527
   11PEO   H1CA 7478   4.427   5.401   2.607  0.9863 -0.5835 -1.9022
   11PEO   C1CB 7479   4.503   5.396   2.687 -0.4760  0.1099 -0.4070
   11PEO   C1CC 7480   4.594   5.517   2.659 -0.1458  0.7542 -0.0459
   11PEO   H1CD 7481   4.648   5.508   2.564 -0.6030  1.7440 -0.4101
   11PEO   H1CE 7482   4.539   5.613   2.655  0.5327  1.1107 -1.0803
   11PEO   O1CF 7483   4.698   5.517   2.759  0.1207 -0.2152  0.4184
   11PEO   H1D0 7484   4.600   5.484   2.941 -0.5729 -0.0963 -1.0139
   11PEO   H1D1 7485   4.578   5.643   2.880 -0.5279  0.0385 -2.6526
   11PEO   C1D2 7486   4.654   5.564   2.887 -0.5329  0.1682 -0.5841
   11PEO   C1D3 7487   4.774   5.618   2.973 -0.0056 -0.5008 -0.0746
   11PEO   H1D4 7488   4.735   5.633   3.075 -0.3664 -2.0673  0.0436
   11PEO   H1D5 7489   4.859   5.548   2.968  1.0872  0.4387  2.9076
   11PEO   O1D6 7490   4.818   5.744   2.922 -0.3776 -0.2436 -0.2703
   11PEO   H1D7 7491   5.014   5.774   2.996  0.1326  0.3267 -3.1745
   11PEO   H1D8 7492   4.876   5.815   3.111 -0.1156 -2.9048  0.4171
   11PEO   C1D9 7493   4.913   5.817   3.007  0.6538  0.8595  0.6233
   11PEO   C1DA 7494   4.927   5.960   2.957 -0.1677  0.5041 -0.8635
   11PEO   H1DB 7495   5.019   6.006   2.996  0.6994 -2.5602  1.1010
   11PEO   H1DC 7496   4.922   5.954   2.847 -2.7278  0.9555 -0.8349
   11PEO   O1DD 7497   4.821   6.043   2.998 -0.0557  0.2897 -0.2776
   11PEO   H1DE 7498   4.833   6.167   2.830 -0.0710 -1.2877 -0.2753
   11PEO   H1DF 7499   4.916   6.236   2.985 -2.2130  0.9624  0.0762
   11PEO   C1E0 7500   4.833   6.179   2.940 -0.7270 -1.0099 -0.2981
   11PEO   C1E1 7501   4.704   6.254   2.970  0.3895 -0.3598 -0.3393
   11PEO   H1E2 7502   4.702   6.335   2.896  1.5812 -0.9280 -1.0210
   11PEO   H1E3 7503   4.623   6.189   2.934  0.0145  0.9165 -1.9114
   11PEO   O1E4 7504   4.690   6.294   3.111 -0.5209  0.0272  1.0297
   11PEO   H1E5 7505   4.494   6.261   3.176 -1.2138  0.5140 -0.5551
   11PEO   H1E6 7506   4.514   6.396   3.062  1.4280 -1.0649 -0.9375
   11PEO   C1E7 7507   4.561   6.343   3.145 -0.0477  0.0707  0.6921
   11PEO   C1E8 7508   4.577   6.454   3.258  0.3565  0.5452 -0.0802
   11PEO   H1E9 7509   4.661   6.516   3.225  0.2996 -1.2571 -4.2151
   11PEO   H1EA 7510   4.486   6.516   3.250  0.0084  0.3788  1.9725
   11PEO   O1EB 7511   4.588   6.392   3.387 -0.9536 -0.2827 -1.1544
   11PEO   H1EC 7512   4.507   6.262   3.513 -1.0682 -1.1906 -1.0363
   11PEO   H1ED 7513   4.399   6.285   3.381 -1.5088  0.9067  0.0405
   11PEO   C1EE 7514   4.468   6.340   3.446 -0.3928 -0.1269 -0.2220
   11PEO   C1EF 7515   4.389   6.449   3.522 -0.2070  0.3992 -0.1813
   11PEO   H1F0 7516   4.444   6.541   3.497  1.1997 -0.6585 -1.1262
   11PEO   H1F1 7517   4.284   6.435   3.491 -0.7096 -3.2798  2.5555
   11PEO   O1F2 7518   4.413   6.426   3.657  0.3398  0.4047 -0.6265
   11PEO   H1F3 7519   4.236   6.494   3.758 -0.3717  0.8093 -0.9846
   11PEO   H1F4 7520   4.365   6.620   3.710 -0.7425 -0.5758 -3.5384
   11PEO   C1F5 7521   4.342   6.517   3.742 -0.1795  0.0503 -0.8440
   11PEO   C1F6 7522   4.409   6.494   3.883 -1.1769 -0.6916 -0.5960
   11PEO   H1F7 7523   4.357   6.571   3.942 -1.2526  1.0532 -2.8050
   11PEO   H1F8 7524   4.410   6.391   3.921 -0.3543  0.0109  1.4127
   11PEO   O1F9 7525   4.550   6.538   3.868  0.3205 -0.4392  0.2321
   11PEO   H1FA 7526   4.713   6.555   4.002  0.8069  1.4952  1.1917
   11PEO   H1FB 7527   4.553   6.520   4.084 -1.7762  0.3040 -0.6521
   11PEO   C1FC 7528   4.604   6.573   4.002  0.3853 -0.7178 -0.0386
   11PEO   C1FD 7529   4.579   6.717   4.021  0.1486 -0.8203 -0.1908
   11PEO   H1FE 7530   4.658   6.758   4.085  0.9857  1.0146 -2.2680
   11PEO   H1FF 7531   4.588   6.763   3.921  2.4862  0.2235  0.4391
   11PEO   O200 7532   4.449   6.730   4.079  0.6278  0.2007 -0.5342
   11PEO   H201 7533   4.435   6.940   4.122  1.6115  1.1932  2.6091
   11PEO   H202 7534   4.502   6.826   4.240  0.2667 -0.4888 -1.0866
   11PEO   C203 7535   4.419   6.843   4.170 -0.3291 -0.0634 -0.2943
   11PEO   C204 7536   4.280   6.824   4.234 -0.2449 -0.1171 -0.1275
   11PEO   H205 7537   4.262   6.729   4.285  0.7174  0.6925  1.8353
   11PEO   H206 7538   4.273   6.905   4.308 -0.3861 -0.9314  0.7530
   11PEO   O207 7539   4.176   6.840   4.145  0.3809  0.1682  0.3717
   11PEO   H208 7540   4.061   6.670   4.145  1.1209 -3.4896 -0.0868
   11PEO   H209 7541   4.208   6.628   4.079 -1.9639 -0.6984  3.0270
   11PEO   C20A 7542   4.139   6.713   4.081 -0.5700  0.6129  0.3417
   11PEO   C20B 7543   4.066   6.740   3.940 -0.8654 -0.6559 -0.3640
   11PEO   H20C 7544   4.053   6.637   3.902  2.0649 -1.6345  1.0006
   11PEO   H20D 7545   3.969   6.788   3.961  0.0183  0.5614  1.1193
   11PEO   O20E 7546   4.154   6.813   3.843  0.8200  0.1476  0.3546
   11PEO   H20F 7547   4.154   6.918   3.670 -1.3425 -0.6576 -2.2822
   11PEO   H210 7548   4.000   6.928   3.774 -0.5169 -1.4469  1.0958
   11PEO   C211 7549   4.078   6.865   3.729  0.1169 -0.0893  0.2162
   11PEO   C212 7550   4.039   6.744   3.637 -0.4819 -0.4626 -0.2935
   11PEO   H213 7551   4.054   6.777   3.533 -2.8040  3.5413  0.4328
   11PEO   H214 7552   4.109   6.664   3.665  0.0285  0.5211  1.4026
   11PEO   O215 7553   3.904   6.707   3.661  0.1558 -0.2479 -0.6677
   11PEO   H216 7554   3.942   6.515   3.630 -0.7776 -0.2368  1.2008
   11PEO   H217 7555   3.842   6.598   3.500 -0.3600 -2.3039 -1.5498
   11PEO   C218 7556   3.864   6.589   3.607  0.0901 -0.0228 -1.3901
   11PEO   C219 7557   3.729   6.542   3.681 -0.1577  0.1902  0.1658
   11PEO   H21A 7558   3.664   6.627   3.703  0.5045  1.3149 -1.9746
   11PEO   H21B 7559   3.671   6.471   3.620  0.9955 -0.3982 -0.2757
   11PEO   O21C 7560   3.757   6.470   3.797 -0.9136 -0.0017  0.0773
   11PEO   H21D 7561   3.916   6.359   3.725  0.3291  0.3990 -1.3016
   11PEO   H21E 7562   3.748   6.291   3.694 -0.1816 -0.9451  1.4439
   11PEO   C21F 7563   3.815   6.341   3.766  0.8291  0.0955 -0.1470
   11PEO   C220 7564   3.824   6.252   3.889 -0.2410  0.6766 -0.6973
   11PEO   H221 7565   3.747   6.279   3.963  1.2171 -2.3707  2.2025
   11PEO   H222 7566   3.806   6.152   3.848 -0.6664 -0.8303  2.8280
   11PEO   O223 7567   3.957   6.255   3.935 -0.8482 -0.3809 -0.3181
   11PEO   H224 7568   3.922   6.372   4.107  0.2137 -0.5171  0.0621
   11PEO   H225 7569   3.999   6.454   3.966 -2.6392 -0.9582 -2.5892
   11PEO   C226 7570   3.996   6.362   4.027 -0.2705  0.2245 -0.4899
   11PEO   C227 7571   4.140   6.340   4.088 -0.5409  0.0344 -0.7467
   11PEO   H228 7572   4.224   6.338   4.017  0.0833 -1.2998 -0.0076
   11PEO   H229 7573   4.167   6.418   4.161  3.6655 -0.8994 -1.0234
   11PEO   O22A 7574   4.134   6.208   4.156 -0.3474 -0.0958  0.0068
   11PEO   H22B 7575   4.299   6.241   4.277  1.4561 -2.2622  0.7028
   11PEO   H22C 7576   4.336   6.163   4.119  0.1167  0.8459 -0.5670
   11PEO   C22D 7577   4.263   6.170   4.201  0.0424 -0.3434 -0.5094
   11PEO   C22E 7578   4.268   6.036   4.279  0.4959  0.0501  0.2484
   11PEO   H22F 7579   4.234   5.958   4.209  1.1024  1.3044 -1.5154
   11PEO   H230 7580   4.373   6.012   4.301  2.1084  4.1627 -1.8370
   11PEO   O231 7581   4.175   6.051   4.388 -0.4229  1.6715 -0.4328
   11PEO   H232 7582   4.228   5.873   4.484 -1.1324 -0.8458 -0.0209
   11PEO   H233 7583   4.102   5.860   4.367  1.6025 -0.5953 -1.3277
   11PEO   C234 7584   4.136   5.923   4.450 -0.2450  0.1349 -1.0771
   11PEO   C235 7585   4.038   5.946   4.565 -0.4174  0.2113 -0.2152
   11PEO   H236 7586   3.941   5.997   4.549 -0.5452  0.2862  0.7531
   11PEO   H237 7587   4.014   5.845   4.602 -1.4206 -0.3372 -2.2203
   11PEO   O238 7588   4.107   6.015   4.672 -0.2282  0.2988  0.1207
   11PEO   H239 7589   4.100   6.027   4.872 -2.8756 -0.8008  1.5759
   11PEO   H23A 7590   3.960   5.942   4.809  0.6822 -0.4985  2.7068
   11PEO   C23B 7591   4.029   6.026   4.788 -0.8689  0.1668 -0.2632
   11PEO   C23C 7592   3.957   6.158   4.800  0.6233 -0.4311  0.5244
   11PEO   H23D 7593   3.920   6.175   4.698 -3.1984  0.0022  1.7814
   11PEO   H23E 7594   3.877   6.150   4.876 -0.0882  0.3025 -0.1277
   11PEO   O23F 7595   4.063   6.258   4.838 -0.3047  0.4808  0.1834
   11PEO   H240 7596   4.092   6.450   4.894 -0.0406 -0.5210  0.7964
   11PEO   H241 7597   3.979   6.370   5.008  0.5190  0.6791  0.5789
   11PEO   C242 7598   4.009   6.378   4.903 -0.5528 -0.0128  0.2019
   11PEO   C243 7599   3.892   6.434   4.823  0.0659  0.0073  0.2609
   11PEO   H244 7600   3.880   6.542   4.836 -2.0217 -0.3295  1.4963
   11PEO   H245 7601   3.897   6.407   4.716  0.6492 -0.8518  0.4915
   11PEO   O246 7602   3.780   6.367   4.876  0.1139  0.3653 -0.2283
   11PEO   H247 7603   3.675   6.481   4.744  0.5974 -1.0214 -0.7229
   11PEO   H248 7604   3.616   6.473   4.919 -0.5357 -0.7168  0.3789
   11PEO   C249 7605   3.651   6.417   4.831 -0.2169  0.1534 -0.0549
   11PEO   C24A 7606   3.550   6.313   4.794  0.3405  0.4385  0.1623
   11PEO   H24B 7607   3.505   6.270   4.885  1.6489  2.1091  1.6865
   11PEO   H24C 7608   3.471   6.367   4.741  0.6848  1.8744  1.0357
   11PEO   O24D 7609   3.618   6.219   4.706 -0.1183  0.1671 -0.3241
   11PEO   H24E 7610   3.461   6.163   4.584 -0.0397  0.3026  0.2785
   11PEO   H24F 7611   3.472   6.069   4.739 -1.2744 -0.3367 -1.1921
   11PEO   C250 7612   3.529   6.116   4.657  0.1380  0.4004  0.1772
   11PEO   C251 7613   3.609   6.005   4.590 -0.4233  0.3923  0.2959
   11PEO   H252 7614   3.577   6.007   4.485 -1.4238 -0.7630  0.5498
   11PEO   H253 7615   3.713   6.038   4.596  0.5098 -2.4029  1.2081
   11PEO   O254 7616   3.588   5.875   4.650  0.5104 -0.2702 -0.3394
   11PEO   H255 7617   3.793   5.839   4.663 -0.1397 -0.2104  0.2739
   11PEO   H256 7618   3.714   5.785   4.512 -1.1333  0.4311 -0.1017
   11PEO   C257 7619   3.702   5.794   4.621 -0.0564 -0.2020  0.0860
   11PEO   C258 7620   3.683   5.653   4.673 -0.9754 -0.2330 -0.2986
   11PEO   H259 7621   3.579   5.621   4.661 -0.9001 -1.2195  1.4327
   11PEO   H25A 7622   3.749   5.588   4.614 -3.0360 -3.2348  0.4729
   11PEO   O25B 7623   3.730   5.632   4.811  0.1879  0.3431  0.2823
   11PEO   H25C 7624   3.579   5.729   4.897  0.2354 -2.7490 -1.4704
   11PEO   H25D 7625   3.741   5.815   4.888 -0.6120  0.9150  2.2467
   11PEO   C25E 7626   3.687   5.722   4.912  0.2328 -0.0978  0.4317
   11PEO   C25F 7627   3.714   5.683   5.052 -0.4668 -0.0667 -0.4251
   11PEO   H260 7628   3.628   5.710   5.115 -0.1188 -1.1559  0.5575
   11PEO   H261 7629   3.715   5.573   5.062  0.2651 -0.0101  0.2153
   11PEO   O262 7630   3.825   5.755   5.105 -0.3388 -0.0636 -0.1109
   11PEO   H263 7631   3.974   5.680   5.219  0.3595 -1.4444  1.9287
   11PEO   H264 7632   3.804   5.652   5.285  1.1459 -0.4597 -1.5552
   11PEO   C265 7633   3.871   5.718   5.229  0.7268  0.5543 -0.8789
   11PEO   C266 7634   3.897   5.851   5.298  0.6482  0.3217 -0.5218
   11PEO   H267 7635   3.804   5.909   5.315  1.6400  1.6609  0.6472
   11PEO   H268 7636   3.945   5.837   5.396 -1.5866 -0.6380  0.5104
   11PEO   O269 7637   3.977   5.929   5.212 -0.6487 -0.3429 -0.1943
   11PEO   H26A 7638   4.018   6.066   5.358 -1.9842  1.5336  0.8677
   11PEO   H26B 7639   3.902   6.126   5.247  0.3049  1.5622  0.1559
   11PEO   C26C 7640   3.992   6.063   5.251 -0.8499 -0.1319  0.5958
   11PEO   C26D 7641   4.099   6.133   5.169  1.1256 -0.4049  0.2548
   11PEO   H26E 7642   4.124   6.077   5.077  2.0986  0.8600 -0.2845
   11PEO   H26F 7643   4.060   6.232   5.141  0.9892  0.0355  1.9443
   11PEO   O270 7644   4.211   6.153   5.251 -0.3929 -0.1039 -0.1322
   11PEO   H271 7645   4.272   6.323   5.147  0.8241 -0.0693 -0.3074
   11PEO   H272 7646   4.355   6.170   5.110 -1.1897  0.1918  0.5018
   11PEO   C273 7647   4.312   6.231   5.192 -0.3141  0.0620  1.0685
   11PEO   C274 7648   4.434   6.257   5.289  0.5283  0.1034 -0.1238
   11PEO   H275 7649   4.477   6.162   5.325  2.9485  1.4743  0.8217
   11PEO   H276 7650   4.510   6.311   5.231  1.6315 -2.1563 -0.9126
   11PEO   O277 7651   4.392   6.340   5.393 -0.2529 -0.0832  0.2140
   11PEO   H278 7652   4.450   6.445   5.573  0.6376 -1.6473  2.9242
   11PEO   H279 7653   4.587   6.395   5.470  1.6589  0.3650  5.3515
   11PEO   C27A 7654   4.485   6.369   5.502 -0.0861  0.1914  0.4283
   11PEO   C27B 7655   4.498   6.240   5.583  0.2058 -0.2961  0.6025
   11PEO   H27C 7656   4.522   6.155   5.518  2.8246  1.2255 -0.5753
   11PEO   H27D 7657   4.584   6.269   5.644  0.3663  1.7454 -0.4919
   11PEO   O27E 7658   4.372   6.225   5.660 -0.0050 -0.5222 -0.9621
   11PEO   H27F 7659   4.260   6.316   5.798  0.4194  1.6281 -0.2300
   11PEO   H280 7660   4.427   6.381   5.800  1.6703 -1.1196  1.7476
   11PEO   C281 7661   4.367   6.289   5.791  0.0268  0.0876 -0.6291
   11PEO   C282 7662   4.398   6.182   5.902 -0.8733  0.4610  0.0301
   11PEO   H283 7663   4.356   6.231   5.991 -0.7593 -1.2791  1.0758
   11PEO   H284 7664   4.352   6.085   5.878 -0.8905  0.4059  0.2881
   11PEO   O285 7665   4.544   6.165   5.925 -0.0253 -0.1986 -0.5616
   11PEO   H286 7666   4.562   5.961   5.898  0.0351 -0.4233 -0.7724
   11PEO   H287 7667   4.523   6.017   6.069  1.2690 -1.0414  0.7343
   11PEO   C288 7668   4.578   6.037   5.975 -0.3214 -0.9158 -0.2092
   11PEO   C289 7669   4.728   6.042   6.023 -0.4814  0.3686 -0.5565
   11PEO   H28A 7670   4.745   6.125   6.093  0.2951  0.7405 -1.1771
   11PEO   H28B 7671   4.753   5.943   6.066 -1.0787 -0.5865 -2.3035
   11PEO   O28C 7672   4.820   6.077   5.914  0.4259 -0.2520  0.2535
   11PEO   H28D 7673   5.008   6.005   6.008  0.4457 -0.5789 -0.9789
   11PEO   H28E 7674   4.960   6.186   6.012  2.8110 -0.2181 -0.2928
   11PEO   C28F 7675   4.961   6.091   5.958  0.1292 -0.3310 -0.2837
   11PEO   C290 7676   5.048   6.119   5.835  0.0938  0.0471  0.1925
   11PEO   H291 7677   5.151   6.143   5.865  0.1630 -1.2531  1.1140
   11PEO   H292 7678   5.039   6.027   5.774  1.0478 -1.8523  2.7157
   11PEO   O293 7679   4.976   6.237   5.770 -0.2405  0.4701  0.2917
   11PEO   H294 7680   5.025   6.183   5.580 -0.6364 -0.4009  0.5995
   11PEO   H295 7681   5.120   6.318   5.660  0.0160 -0.3453  1.8972
   11PEO   C296 7682   5.021   6.276   5.639  0.1828  0.2393 -0.3138
   11PEO   C297 7683   4.921   6.386   5.599  0.8640 -0.5369  0.6973
   11PEO   H298 7684   4.903   6.412   5.494 -1.7621  0.3069  1.2593
   11PEO   H299 7685   4.825   6.349   5.639  0.0764 -0.4186 -1.0139
   11PEO   O29A 7686   4.966   6.502   5.659 -0.3749  0.7085 -0.3878
   11PEO   H29B 7687   4.783   6.596   5.620  0.5876 -2.7565 -1.3718
   11PEO   H29C 7688   4.939   6.672   5.562  1.7717  0.6941  0.9186
   11PEO   C29D 7689   4.888   6.616   5.642 -0.1849  0.7375 -0.2341
   11PEO   C29E 7690   4.890   6.700   5.775 -0.2731 -0.3419 -0.2841
   11PEO   H29F 7691   4.996   6.717   5.800 -0.3031 -0.7087  0.0878
   11PEO   H2A0 7692   4.856   6.797   5.736 -1.2215 -0.0640  1.1835
   11PEO   O2A1 7693   4.797   6.660   5.876 -0.0316  0.3321  0.1573
   11PEO   H2A2 7694   4.874   6.453   5.922 -0.4932 -0.1956 -0.1423
   11PEO   H2A3 7695   4.730   6.482   5.805 -1.0086 -2.0377  1.4918
   11PEO   C2A4 7696   4.787   6.513   5.894 -0.5082  0.0885  0.5003
   11PEO   C2A5 7697   4.688   6.479   6.007 -1.0432 -0.6169  0.5808
   11PEO   H2A6 7698   4.606   6.553   6.013  0.1298  0.7262  0.6141
   11PEO   H2A7 7699   4.645   6.378   6.003 -2.4773 -0.0251  0.3648
   11PEO   O2A8 7700   4.766   6.486   6.131  0.2943 -0.1649  0.3215
   11PEO   H2A9 7701   4.633   6.369   6.253  3.3229 -1.0277  0.5004
   11PEO   H2AA 7702   4.631   6.547   6.274  0.4320  0.6670 -0.7478
   11PEO   C2AB 7703   4.694   6.460   6.250  0.5936  0.8870 -1.1314
   11PEO   C2AC 7704   4.794   6.445   6.376  1.2126  0.1516  0.2378
   11PEO   H2AD 7705   4.872   6.522   6.379  0.2843  1.1252 -0.2672
   11PEO   H2AE 7706   4.746   6.451   6.475  0.5078  0.5464 -0.1184
   11PEO   O2AF 7707   4.836   6.303   6.371 -0.4780  0.7797 -0.0393
   11PEO   H2B0 7708   4.938   6.285   6.550 -2.5042 -1.1520 -0.3947
   11PEO   H2B1 7709   5.028   6.350   6.410 -1.8212  1.2247 -2.0320
   11PEO   C2B2 7710   4.955   6.274   6.442  0.1633  0.0232 -0.1494
   11PEO   C2B3 7711   4.993   6.127   6.418  0.2953 -0.3322 -0.3109
   11PEO   H2B4 7712   5.030   6.078   6.509  0.1964  1.8133  0.9478
   11PEO   H2B5 7713   4.914   6.073   6.365 -0.0429  2.0555 -2.4133
   11PEO   O2B6 7714   5.100   6.126   6.321  0.1653  0.0298 -0.4669
   11PEO   H2B7 7715   5.096   5.915   6.329  0.4316 -0.8878 -0.0057
   11PEO   H2B8 7716   5.239   6.000   6.390 -2.4505 -1.5123  1.6788
   11PEO   C2B9 7717   5.164   5.999   6.309 -1.0770  0.4563  0.3038
   11PEO   C2BA 7718   5.233   5.991   6.172 -0.6490 -0.0244  0.0357
   11PEO   H2BB 7719   5.234   5.884   6.144  0.6711 -0.8453  2.8765
   11PEO   H2BC 7720   5.181   6.062   6.106 -0.9545 -0.8045 -0.5858
   11PEO   O2BD 7721   5.365   6.040   6.178  0.2936  0.3941  0.8375
   11PEO   H2BE 7722   5.421   5.961   6.173 -0.6199 -0.1756 -1.7639
   12PEO   H001 7723   2.165   4.580   0.018 -0.3677  0.5759  2.2416
   12PEO   H002 7724   2.027   4.694  -0.004  0.4878 -0.3084  1.2821
   12PEO   H003 7725   2.000   4.525   0.012  0.5042 -0.5785  0.0845
   12PEO   C004 7726   2.070   4.597  -0.033  0.3664 -0.1509  0.5418
   12PEO   C005 7727   2.080   4.573  -0.190  0.0566 -0.4968 -0.0577
   12PEO   H006 7728   2.123   4.472  -0.199  0.3193 -0.3788 -0.1610
   12PEO   H007 7729   1.979   4.558  -0.231 -0.0466  0.2579 -0.0856
   12PEO   O008 7730   2.155   4.676  -0.256  0.2189  0.1810 -0.5487
   12PEO   H009 7731   2.008   4.694  -0.413 -1.8251 -3.9843  1.2439
   12PEO   H00A 7732   2.131   4.573  -0.449 -0.5379  0.3189 -2.0194
   12PEO   C00B 7733   2.115   4.671  -0.401 -0.7464 -0.5078 -0.3255
   12PEO   C00C 7734   2.195   4.792  -0.472 -0.1943  0.5916 -0.1060
   12PEO   H00D 7735   2.139   4.818  -0.563  0.6803 -0.8276 -1.0961
   12PEO   H00E 7736   2.231   4.875  -0.410  0.6776 -0.6992  1.1947
   12PEO   O00F 7737   2.305   4.721  -0.524  0.1895 -0.1457  0.1078
   12PEO   H010 7738   2.475   4.758  -0.657  0.5834  1.8397 -1.5076
   12PEO   H011 7739   2.387   4.906  -0.631 -0.4386  0.2031  0.3872
   12PEO   C012 7740   2.373   4.797  -0.640  0.0816  0.2112 -0.5327
   12PEO   C013 7741   2.298   4.777  -0.775 -0.1967 -0.1447 -0.3521
   12PEO   H014 7742   2.194   4.807  -0.754 -0.3473 -0.9171  0.0436
   12PEO   H015 7743   2.334   4.843  -0.856  0.7947  0.2897  0.4286
   12PEO   O016 7744   2.285   4.635  -0.808 -0.1604 -0.3960 -0.1705
   12PEO   H017 7745   2.473   4.576  -0.840  0.1649  1.9534 -0.5626
   12PEO   H018 7746   2.417   4.643  -0.985 -0.0345  1.3205  1.5043
   12PEO   C019 7747   2.381   4.584  -0.900 -0.6252 -0.1018  0.3080
   12PEO   C01A 7748   2.339   4.445  -0.942  0.8604  0.4604 -0.2039
   12PEO   H01B 7749   2.426   4.394  -0.986  1.3915  0.1604  1.1421
   12PEO   H01C 7750   2.320   4.377  -0.858  0.5740 -0.5179 -1.0406
   12PEO   O01D 7751   2.230   4.446  -1.031  0.1393 -0.0388 -0.2236
   12PEO   H01E 7752   2.150   4.260  -0.978  0.3479  1.4066  1.2839
   12PEO   H01F 7753   2.280   4.261  -1.108 -0.1689  1.2092 -0.6341
   12PEO   C020 7754   2.192   4.310  -1.066 -0.7808 -0.1803 -0.2345
   12PEO   C021 7755   2.088   4.295  -1.183  0.5137  0.2477 -0.2276
   12PEO   H022 7756   2.096   4.372  -1.262  0.4591 -0.8425 -1.3315
   12PEO   H023 7757   2.111   4.205  -1.242  1.4450  1.1983 -1.3784
   12PEO   O024 7758   1.955   4.298  -1.128 -0.0365  0.4173 -0.5141
   12PEO   H025 7759   1.946   4.118  -1.034 -0.1188  0.0654 -0.3499
   12PEO   H026 7760   1.862   4.131  -1.207 -1.2628  0.6745  0.2946
   12PEO   C027 7761   1.887   4.173  -1.109  0.2746  0.8028 -0.1200
   12PEO   C028 7762   1.753   4.215  -1.033 -0.9898  0.7737  0.5778
   12PEO   H029 7763   1.709   4.123  -0.991  1.5091 -0.7825  0.0256
   12PEO   H02A 7764   1.787   4.280  -0.951  2.2175  0.9676 -0.7430
   12PEO   O02B 7765   1.670   4.295  -1.121 -0.8971  0.1279 -0.5628
   12PEO   H02C 7766   1.598   4.131  -1.228  0.2676 -0.0101  2.2298
   12PEO   H02D 7767   1.710   4.245  -1.316  0.2035  0.3412  0.8326
   12PEO   C02E 7768   1.625   4.236  -1.246  0.0053 -0.2087  0.5261
   12PEO   C02F 7769   1.509   4.320  -1.306 -0.1270  0.5227 -0.5897
   12PEO   H030 7770   1.471   4.271  -1.397 -0.2019  0.1206 -0.3471
   12PEO   H031 7771   1.431   4.337  -1.231 -0.9418  2.2248 -1.7653
   12PEO   O032 7772   1.560   4.449  -1.343 -1.0076  0.6049  0.0115
   12PEO   H033 7773   1.496   4.641  -1.356  0.5109 -1.3268  2.5103
   12PEO   H034 7774   1.363   4.523  -1.343  0.3673  0.1976 -1.1558
   12PEO   C035 7775   1.461   4.542  -1.389  0.4856 -0.2382 -1.0832
   12PEO   C036 7776   1.455   4.548  -1.538  0.8484  0.1839 -0.7743
   12PEO   H037 7777   1.365   4.498  -1.577  1.5184 -2.3980  0.6854
   12PEO   H038 7778   1.444   4.654  -1.565 -0.0090  0.7219  1.4100
   12PEO   O039 7779   1.570   4.494  -1.600  0.0096 -0.1045  0.5289
   12PEO   H03A 7780   1.493   4.551  -1.792 -0.1071 -1.1848 -3.1774
   12PEO   H03B 7781   1.481   4.374  -1.748 -0.1972  1.1226 -0.1022
   12PEO   C03C 7782   1.540   4.467  -1.739  0.4395  0.7550 -0.3663
   12PEO   C03D 7783   1.673   4.444  -1.806 -0.4865  0.5261 -0.0639
   12PEO   H03E 7784   1.676   4.489  -1.907  0.1589  1.2521  0.2623
   12PEO   H03F 7785   1.745   4.491  -1.738 -0.9270  0.4083  0.4857
   12PEO   O040 7786   1.686   4.306  -1.812 -0.1611  0.3675  0.1385
   12PEO   H041 7787   1.895   4.339  -1.844  0.8669 -0.8357 -1.7258
   12PEO   H042 7788   1.818   4.261  -1.966  0.7604  0.9784 -0.1370
   12PEO   C043 7789   1.819   4.261  -1.856  0.8951 -1.1532 -0.0933
   12PEO   C044 7790   1.863   4.127  -1.804 -0.1461 -0.1101  0.2224
   12PEO   H045 7791   1.971   4.117  -1.823  0.3777  0.6667  2.4935
   12PEO   H046 7792   1.856   4.134  -1.695  1.4030 -2.2022  0.5141
   12PEO   O047 7793   1.790   4.018  -1.859  0.0500 -0.5074 -0.2389
   12PEO   H048 7794   1.924   3.864  -1.801  0.7224  1.3641  1.4291
   12PEO   H049 7795   1.767   3.804  -1.831  0.6631 -0.6918 -0.6040
   12PEO   C04A 7796   1.818   3.892  -1.788 -0.0331 -0.2756 -0.6188
   12PEO   C04B 7797   1.792   3.911  -1.635 -0.3837 -0.2872  0.6571
   12PEO   H04C 7798   1.716   3.988  -1.616  0.8238  1.4403 -1.1051
   12PEO   H04D 7799   1.762   3.817  -1.587 -1.9278  0.5175  1.3203
   12PEO   O04E 7800   1.919   3.944  -1.591  0.1284  0.2399  0.2736
   12PEO   H04F 7801   1.855   4.082  -1.442 -0.8348 -0.1094 -1.3079
   12PEO   H050 7802   2.019   4.045  -1.440 -1.7749  1.1006  3.2119
   12PEO   C051 7803   1.922   3.996  -1.460 -0.6180 -0.3220  0.4275
   12PEO   C052 7804   1.903   3.887  -1.355  0.4821  0.2428 -0.1365
   12PEO   H053 7805   1.957   3.793  -1.373 -0.2385 -0.5150  1.4155
   12PEO   H054 7806   1.931   3.925  -1.256  0.5045 -1.7440  0.6623
   12PEO   O055 7807   1.768   3.861  -1.352  0.0358  0.3915  0.1256
   12PEO   H056 7808   1.615   3.782  -1.248 -0.9308 -1.2468 -4.8325
   12PEO   H057 7809   1.775   3.760  -1.163 -1.0118 -0.1472  0.5135
   12PEO   C058 7810   1.723   3.762  -1.259  0.2179  0.8822 -0.1598
   12PEO   C059 7811   1.718   3.620  -1.317  0.2067  0.3835 -0.0185
   12PEO   H05A 7812   1.802   3.613  -1.388 -0.6820  1.4417 -1.2265
   12PEO   H05B 7813   1.734   3.544  -1.239  0.9053  0.4248 -0.1181
   12PEO   O05C 7814   1.591   3.613  -1.393  0.1168 -0.0025  0.0331
   12PEO   H05D 7815   1.573   3.407  -1.376 -1.0167  0.0414 -1.0352
   12PEO   H05E 7816   1.646   3.451  -1.529 -1.0677  1.6239 -0.7508
   12PEO   C05F 7817   1.573   3.484  -1.454 -0.7499  0.9690 -0.1468
   12PEO   C060 7818   1.429   3.484  -1.512 -0.3864  0.2573 -0.1115
   12PEO   H061 7819   1.391   3.381  -1.507 -2.4773  1.0398  1.3259
   12PEO   H062 7820   1.369   3.552  -1.451  0.4130  1.7871 -0.9652
   12PEO   O063 7821   1.423   3.522  -1.650 -0.2104  0.8033 -0.4037
   12PEO   H064 7822   1.524   3.699  -1.688 -0.0995  1.1071  0.2213
   12PEO   H065 7823   1.371   3.714  -1.595 -1.0672 -3.1877  0.9400
   12PEO   C066 7824   1.423   3.659  -1.674  0.3120 -0.1991 -0.4182
   12PEO   C067 7825   1.363   3.670  -1.810  0.3478 -0.0088  0.3186
   12PEO   H068 7826   1.288   3.591  -1.829  0.3551 -0.7747  3.0275
   12PEO   H069 7827   1.309   3.760  -1.842 -0.4617 -1.8644 -4.4408
   12PEO   O06A 7828   1.470   3.654  -1.905  0.7150  0.2825  0.2688
   12PEO   H06B 7829   1.446   3.806  -2.031  1.1315  0.2485 -1.8369
   12PEO   H06C 7830   1.361   3.657  -2.090  0.2872  1.1310 -0.6465
   12PEO   C06D 7831   1.450   3.696  -2.039  0.3232  0.0241  0.1672
   12PEO   C06E 7832   1.578   3.637  -2.116  0.5396  0.3471  0.1243
   12PEO   H06F 7833   1.584   3.685  -2.215 -1.4875  2.3352  0.8791
   12PEO   H070 7834   1.664   3.676  -2.059  2.1441 -1.6572 -0.7859
   12PEO   O071 7835   1.573   3.493  -2.122 -0.2998  0.1583  0.3165
   12PEO   H072 7836   1.781   3.477  -2.135 -1.2930  2.2763  0.2893
   12PEO   H073 7837   1.693   3.480  -2.291 -1.7361  3.0059  1.2161
   12PEO   C074 7838   1.694   3.439  -2.189 -0.0532 -0.3593  0.0009
   12PEO   C075 7839   1.678   3.284  -2.202  0.3123  0.0525 -0.3055
   12PEO   H076 7840   1.781   3.248  -2.211  0.0627 -0.2541 -2.6423
   12PEO   H077 7841   1.636   3.231  -2.115 -0.7402 -0.8292 -1.2967
   12PEO   O078 7842   1.596   3.246  -2.317  1.0326 -0.6872  0.0818
   12PEO   H079 7843   1.626   3.045  -2.301 -1.0026  1.7651  1.4700
   12PEO   H07A 7844   1.769   3.129  -2.377 -0.3070  0.0881  0.5423
   12PEO   C07B 7845   1.660   3.125  -2.369 -0.3616  0.2848 -0.0355
   12PEO   C07C 7846   1.614   3.085  -2.508  0.3141  0.1027 -0.1183
   12PEO   H07D 7847   1.622   3.174  -2.571  1.0702 -0.6138 -1.0766
   12PEO   H07E 7848   1.688   3.028  -2.567  1.6040 -0.0738  1.6061
   12PEO   O07F 7849   1.493   3.017  -2.512 -0.3512  0.6198  0.2385
   12PEO   H080 7850   1.469   2.955  -2.716 -1.6321 -0.3580 -0.4383
   12PEO   H081 7851   1.350   3.079  -2.651  1.6787  2.1201  0.2602
   12PEO   C082 7852   1.410   2.989  -2.629 -0.2659  0.7341  0.1065
   12PEO   C083 7853   1.302   2.890  -2.592 -0.0232  0.8899 -0.2209
   12PEO   H084 7854   1.253   2.933  -2.503  0.4293  0.9119  0.0218
   12PEO   H085 7855   1.229   2.884  -2.674 -1.6418  3.2912  0.9162
   12PEO   O086 7856   1.364   2.762  -2.562 -0.4585  0.3581 -0.2311
   12PEO   H087 7857   1.259   2.600  -2.616  5.1812 -1.0484  0.0464
   12PEO   H088 7858   1.167   2.712  -2.512 -1.6289 -2.0953  0.4553
   12PEO   C089 7859   1.264   2.662  -2.526 -0.7229 -0.3583  0.2526
   12PEO   C08A 7860   1.294   2.573  -2.404 -0.2436  0.2183  0.0990
   12PEO   H08B 7861   1.299   2.629  -2.309  1.1627  0.3796 -0.0485
   12PEO   H08C 7862   1.227   2.487  -2.400  1.0309 -0.8548 -0.9014
   12PEO   O08D 7863   1.423   2.516  -2.435  0.0799  0.5009 -0.1911
   12PEO   H08E 7864   1.530   2.351  -2.399 -0.9345 -0.2053  0.6892
   12PEO   H08F 7865   1.386   2.366  -2.301 -0.1723  0.1109  1.0376
   12PEO   C090 7866   1.472   2.424  -2.340 -0.0624  0.0798  1.2307
   12PEO   C091 7867   1.545   2.490  -2.225  0.2415 -0.6414  0.2158
   12PEO   H092 7868   1.471   2.542  -2.163  0.2298 -0.9030  0.4215
   12PEO   H093 7869   1.594   2.413  -2.165  3.0844  1.5112  0.8556
   12PEO   O094 7870   1.650   2.578  -2.275  0.6130  0.0295  0.1221
   12PEO   H095 7871   1.551   2.750  -2.242 -2.6851  0.1659 -2.9588
   12PEO   H096 7872   1.613   2.725  -2.404 -0.1357  1.3889  0.6411
   12PEO   C097 7873   1.640   2.716  -2.298 -0.3764 -0.2003  0.6032
   12PEO   C098 7874   1.775   2.793  -2.274  0.7474 -0.6679 -0.3248
   12PEO   H099 7875   1.862   2.729  -2.296  0.1065 -1.1109 -1.6535
   12PEO   H09A 7876   1.763   2.868  -2.353 -0.9147  0.6838  1.1291
   12PEO   O09B 7877   1.784   2.858  -2.151 -0.1845  0.0567  0.4266
   12PEO   H09C 7878   1.946   2.991  -2.196  2.2773 -0.1333  0.7753
   12PEO   H09D 7879   1.987   2.832  -2.136 -0.4175  0.5768  0.0918
   12PEO   C09E 7880   1.916   2.915  -2.123 -0.0744  0.7626  0.8272
   12PEO   C09F 7881   1.932   2.953  -1.975 -0.4669 -0.3456 -0.4079
   12PEO   H0A0 7882   1.872   2.891  -1.908 -1.1205  0.2895 -0.4010
   12PEO   H0A1 7883   2.038   2.944  -1.945 -0.0875  2.9591 -0.4072
   12PEO   O0A2 7884   1.880   3.086  -1.956  0.5041 -0.2707  0.6757
   12PEO   H0A3 7885   1.937   3.255  -1.846  0.1251  0.0327 -1.5619
   12PEO   H0A4 7886   2.003   3.102  -1.784 -0.2215 -0.8484 -1.7747
   12PEO   C0A5 7887   1.913   3.150  -1.824 -0.2173  0.3238 -0.4622
   12PEO   C0A6 7888   1.788   3.136  -1.731  0.1376 -0.4240 -0.5179
   12PEO   H0A7 7889   1.732   3.043  -1.746 -1.6292 -0.0489  2.8670
   12PEO   H0A8 7890   1.809   3.116  -1.625  0.0403  0.6209 -0.2919
   12PEO   O0A9 7891   1.705   3.264  -1.734  0.0710  0.5073 -0.4899
   12PEO   H0AA 7892   1.683   3.270  -1.933 -0.6262 -3.4057  0.4084
   12PEO   H0AB 7893   1.616   3.412  -1.835  1.0292  0.0070 -1.8569
   12PEO   C0AC 7894   1.627   3.303  -1.844  0.3727 -0.2583  0.0070
   12PEO   C0AD 7895   1.485   3.247  -1.846 -0.7615 -0.0750  0.0157
   12PEO   H0AE 7896   1.435   3.288  -1.757 -1.4363  0.1133 -0.4460
   12PEO   H0AF 7897   1.429   3.292  -1.930  2.1703  1.5291 -1.2440
   12PEO   O0B0 7898   1.473   3.098  -1.858 -0.1329 -0.5988  0.2581
   12PEO   H0B1 7899   1.634   3.018  -1.957 -0.0399 -0.0418  0.7331
   12PEO   H0B2 7900   1.510   3.087  -2.069  1.9220  2.4905  1.8598
   12PEO   C0B3 7901   1.527   3.029  -1.977 -0.0383 -0.3784  0.5417
   12PEO   C0B4 7902   1.469   2.883  -1.981 -0.1095  0.7926  0.5730
   12PEO   H0B5 7903   1.528   2.826  -2.055  1.7827  1.4350  1.5128
   12PEO   H0B6 7904   1.489   2.831  -1.886 -0.3150 -0.7062 -0.1840
   12PEO   O0B7 7905   1.332   2.902  -2.020 -0.2544 -0.3265  0.8799
   12PEO   H0B8 7906   1.308   2.823  -2.196 -0.5989  0.6606 -1.1660
   12PEO   H0B9 7907   1.374   2.982  -2.219 -0.2700  1.8646  0.5370
   12PEO   C0BA 7908   1.305   2.925  -2.156  0.7816  0.1901  0.2333
   12PEO   C0BB 7909   1.163   2.985  -2.153  0.1656  0.1124 -0.0942
   12PEO   H0BC 7910   1.152   3.044  -2.061  1.0571 -1.5990  1.1505
   12PEO   H0BD 7911   1.152   3.057  -2.236 -0.2147  0.8220  0.5600
   12PEO   O0BE 7912   1.049   2.886  -2.153  0.0800  0.3109  0.4096
   12PEO   H0BF 7913   1.014   2.860  -1.946  1.2142 -1.9642  1.1338
   12PEO   H0C0 7914   1.107   2.729  -2.036  2.0766  0.5430  1.1110
   12PEO   C0C1 7915   1.026   2.803  -2.039  0.7038 -0.9340  0.4181
   12PEO   C0C2 7916   0.902   2.713  -2.071  0.1590 -0.0085  0.4603
   12PEO   H0C3 7917   0.872   2.655  -1.982  1.4631 -2.2656 -0.4785
   12PEO   H0C4 7918   0.817   2.779  -2.093  0.0941  0.2131  1.3160
   12PEO   O0C5 7919   0.936   2.621  -2.173  0.4758  0.6727  0.0102
   12PEO   H0C6 7920   0.751   2.624  -2.269  0.1147  0.4696  0.1934
   12PEO   H0C7 7921   0.786   2.474  -2.180  0.4474 -0.6255 -1.0265
   12PEO   C0C8 7922   0.830   2.553  -2.243  0.2291  0.6658  0.3867
   12PEO   C0C9 7923   0.876   2.479  -2.365 -0.4466  0.6670  0.7116
   12PEO   H0CA 7924   0.796   2.428  -2.422  1.5928  0.3380 -2.0656
   12PEO   H0CB 7925   0.931   2.537  -2.441 -0.2852  1.9574  1.7812
   12PEO   O0CC 7926   0.965   2.371  -2.333 -0.3082  0.1231  0.5105
   12PEO   H0CD 7927   1.026   2.344  -2.527  1.1902 -1.7797 -0.1026
   12PEO   H0CE 7928   0.874   2.252  -2.478  0.1759 -1.7079  0.0547
   12PEO   C0CF 7929   0.975   2.284  -2.450 -0.4263  0.0349  0.3216
   12PEO   C0D0 7930   1.063   2.159  -2.393  0.6694  0.3875  0.0665
   12PEO   H0D1 7931   1.032   2.141  -2.289 -0.8270 -1.6210 -0.6617
   12PEO   H0D2 7932   1.046   2.069  -2.455  2.4301  0.7236 -0.9806
   12PEO   O0D3 7933   1.201   2.202  -2.391 -0.1972 -0.1014  0.0313
   12PEO   H0D4 7934   1.389   2.157  -2.369 -1.8610  1.7614  0.7401
   12PEO   H0D5 7935   1.286   2.017  -2.423 -1.3613 -1.0810  1.4391
   12PEO   C0D6 7936   1.295   2.102  -2.353 -0.9217 -0.0821  0.2063
   12PEO   C0D7 7937   1.277   2.055  -2.203 -0.3655 -0.3056  0.4880
   12PEO   H0D8 7938   1.367   2.012  -2.158  0.4904 -0.7240 -1.5508
   12PEO   H0D9 7939   1.246   2.138  -2.137  1.1153  0.9499 -0.3369
   12PEO   O0DA 7940   1.172   1.956  -2.210  1.0745 -0.2734  0.7480
   12PEO   H0DB 7941   1.053   2.049  -2.069 -2.0744 -0.2797 -2.9423
   12PEO   H0DC 7942   1.153   1.909  -2.000 -2.4334 -2.5929  0.0819
   12PEO   C0DD 7943   1.097   1.949  -2.086 -0.4087 -0.1311 -0.2199
   12PEO   C0DE 7944   0.980   1.860  -2.102 -0.0122 -0.6864 -1.1032
   12PEO   H0DF 7945   1.013   1.761  -2.137 -0.1111 -1.2106  0.2271
   12PEO   H0E0 7946   0.927   1.849  -2.005  3.9919 -3.4576  1.0604
   12PEO   O0E1 7947   0.905   1.918  -2.204  0.5518 -0.1456  0.1740
   12PEO   H0E2 7948   0.855   2.110  -2.126  3.6972 -1.6777  1.3038
   12PEO   H0E3 7949   0.748   1.981  -2.069 -0.4494  0.7264 -0.2889
   12PEO   C0E4 7950   0.806   2.016  -2.156 -0.6055  0.8380 -0.3481
   12PEO   C0E5 7951   0.710   2.044  -2.275  0.2112 -0.3754 -1.0653
   12PEO   H0E6 7952   0.673   2.147  -2.261  1.3462 -0.1752  0.6618
   12PEO   H0E7 7953   0.746   2.020  -2.376 -1.2443 -1.6512 -1.3174
   12PEO   O0E8 7954   0.596   1.954  -2.264 -0.2610  0.4431 -0.2890
   12PEO   H0E9 7955   0.550   2.003  -2.458  1.1440 -1.3470 -0.3129
   12PEO   H0EA 7956   0.415   2.028  -2.344 -0.0641 -0.1328 -1.6621
   12PEO   C0EB 7957   0.500   1.963  -2.368  0.4967 -0.0213 -0.0647
   12PEO   C0EC 7958   0.441   1.827  -2.398  0.2709  0.0912 -0.1864
   12PEO   H0ED 7959   0.400   1.789  -2.304  1.5670 -1.9059 -0.3639
   12PEO   H0EE 7960   0.366   1.825  -2.479  0.2464 -2.6799 -0.2151
   12PEO   O0EF 7961   0.537   1.737  -2.461  1.1650  0.7956  0.0651
   12PEO   H0F0 7962   0.424   1.629  -2.591 -0.4621 -0.9064 -0.1353
   12PEO   H0F1 7963   0.423   1.554  -2.434 -0.3335  3.4668  1.8636
   12PEO   C0F2 7964   0.490   1.604  -2.506  0.1398  0.0104 -0.3199
   12PEO   C0F3 7965   0.613   1.521  -2.551 -0.1024 -0.5616 -0.5693
   12PEO   H0F4 7966   0.581   1.421  -2.585  0.8730 -0.5478 -1.5697
   12PEO   H0F5 7967   0.661   1.577  -2.633 -2.4993  0.3056 -1.4843
   12PEO   O0F6 7968   0.707   1.504  -2.439 -1.1102 -0.0589  0.5935
   12PEO   H0F7 7969   0.767   1.688  -2.382 -2.2367  0.3820 -2.8351
   12PEO   H0F8 7970   0.859   1.628  -2.525  0.3251 -0.7236 -1.3968
   12PEO   C0F9 7971   0.814   1.600  -2.429 -0.0966  0.5711 -1.2024
   12PEO   C0FA 7972   0.929   1.540  -2.337 -0.4861 -0.0826  0.1108
   12PEO   H0FB 7973   1.013   1.610  -2.333  1.0452 -1.7385 -1.3858
   12PEO   H0FC 7974   0.886   1.539  -2.236 -0.7435  2.2804  0.0757
   12PEO   O0FD 7975   0.970   1.419  -2.392 -0.2110 -0.1593  0.3452
   12PEO   H0FE 7976   1.072   1.366  -2.217  1.5745  2.7990  0.5806
   12PEO   H0FF 7977   1.172   1.404  -2.350  0.4169 -0.5803  0.3896
   12PEO   C100 7978   1.077   1.354  -2.326  0.0492  0.2453  0.7104
   12PEO   C101 7979   1.094   1.202  -2.372  0.1051 -0.1970  0.1302
   12PEO   H102 7980   1.141   1.141  -2.293 -0.4164  0.4870  0.9996
   12PEO   H103 7981   0.988   1.174  -2.380 -0.1639  0.5134  1.0213
   12PEO   O104 7982   1.164   1.193  -2.506  0.1447 -0.1788 -0.2569
   12PEO   H105 7983   1.078   1.028  -2.578 -0.2869  0.3410 -1.0653
   12PEO   H106 7984   1.232   0.997  -2.519 -0.6762 -0.6550 -0.7910
   12PEO   C107 7985   1.176   1.076  -2.573 -0.2039  0.0919 -0.2099
   12PEO   C108 7986   1.207   1.106  -2.723 -0.1956 -0.3154  0.1108
   12PEO   H109 7987   1.175   1.024  -2.789  1.8644 -3.7543  3.0102
   12PEO   H10A 7988   1.154   1.199  -2.748 -0.1273 -0.0390  0.9491
   12PEO   O10B 7989   1.348   1.136  -2.733  0.3786  0.2150  0.1945
   12PEO   H10C 7990   1.376   1.290  -2.605  0.1338  1.4282 -0.0372
   12PEO   H10D 7991   1.356   1.347  -2.783  1.6894  1.2993  0.0857
   12PEO   C10E 7992   1.390   1.270  -2.713 -0.1635  0.4277  0.0959
   12PEO   C10F 7993   1.543   1.251  -2.718 -0.1694  0.3146  0.0282
   12PEO   H110 7994   1.589   1.330  -2.657  1.7869  1.3925 -2.6781
   12PEO   H111 7995   1.578   1.151  -2.686  0.0036 -0.5651 -2.6811
   12PEO   O112 7996   1.575   1.262  -2.854  0.5214 -0.4749  0.0607
   12PEO   H113 7997   1.708   1.265  -3.007 -0.1884 -0.3401  0.1541
   12PEO   H114 7998   1.733   1.137  -2.877  2.4313  0.7658  1.8247
   12PEO   C115 7999   1.709   1.242  -2.899 -0.3207 -0.1091  0.2051
   12PEO   C116 8000   1.816   1.334  -2.830  0.4330 -0.1947 -0.5838
   12PEO   H117 8001   1.805   1.342  -2.720  1.1606  0.6696 -0.5696
   12PEO   H118 8002   1.919   1.301  -2.850  1.4401  2.1357  0.4643
   12PEO   O119 8003   1.794   1.468  -2.884 -0.5521  0.5187 -0.6716
   12PEO   H11A 8004   1.859   1.667  -2.859 -1.2548  1.2456  3.2946
   12PEO   H11B 8005   1.978   1.548  -2.809 -0.3802 -3.1554  0.2997
   12PEO   C11C 8006   1.871   1.570  -2.808  0.1621 -0.1428  0.5424
   12PEO   C11D 8007   1.799   1.597  -2.669  0.3536 -0.6831 -0.2999
   12PEO   H11E 8008   1.788   1.497  -2.623  1.9540 -1.0331 -0.6125
   12PEO   H11F 8009   1.868   1.644  -2.596  0.5737  0.5210 -1.2569
   12PEO   O120 8010   1.677   1.665  -2.660 -0.0788 -0.0501  0.5725
   12PEO   H121 8011   1.575   1.525  -2.779  0.3036  1.0902 -0.4904
   12PEO   H122 8012   1.605   1.679  -2.860  1.7347 -0.7619 -0.1163
   12PEO   C123 8013   1.579   1.634  -2.763 -0.0271  0.9928  0.3034
   12PEO   C124 8014   1.431   1.661  -2.714  0.0393 -0.5507  0.9742
   12PEO   H125 8015   1.431   1.770  -2.693  0.7593  0.1761 -2.2622
   12PEO   H126 8016   1.363   1.649  -2.800  0.5111  2.0721  0.1271
   12PEO   O127 8017   1.387   1.578  -2.609 -0.1125 -0.1022 -0.5864
   12PEO   H128 8018   1.221   1.538  -2.503 -1.7278 -0.2303  0.6521
   12PEO   H129 8019   1.184   1.641  -2.645 -1.4604 -1.4908  2.0894
   12PEO   C12A 8020   1.257   1.621  -2.565  0.2375 -0.9910  0.7114
   12PEO   C12B 8021   1.262   1.750  -2.479 -0.1408 -0.6934 -0.4518
   12PEO   H12C 8022   1.273   1.839  -2.542 -0.1325  0.4719  1.1413
   12PEO   H12D 8023   1.158   1.764  -2.447  0.2781 -1.3011  1.2770
   12PEO   O12E 8024   1.354   1.751  -2.362  0.0806  0.2477  0.6715
   12PEO   H12F 8025   1.278   1.569  -2.285 -1.5925 -0.3144  0.8668
   12PEO   H130 8026   1.212   1.719  -2.212  0.5141  2.1559 -1.8456
   12PEO   C131 8027   1.302   1.671  -2.252 -0.0747 -0.1733 -0.5226
   12PEO   C132 8028   1.418   1.660  -2.156  0.0782  0.8217 -0.3346
   12PEO   H133 8029   1.410   1.579  -2.081  1.2762  0.6422 -0.3860
   12PEO   H134 8030   1.507   1.641  -2.216  0.4515 -1.4618  0.8236
   12PEO   O135 8031   1.441   1.780  -2.077 -0.3305 -0.0651  0.0208
   12PEO   H136 8032   1.650   1.789  -2.067  0.2744  0.9974  1.5585
   12PEO   H137 8033   1.588   1.662  -1.979  0.3048 -0.4728 -1.5811
   12PEO   C138 8034   1.564   1.766  -2.003  0.0139  0.1112  0.9078
   12PEO   C139 8035   1.567   1.860  -1.882  0.4099  0.1487 -0.2537
   12PEO   H13A 8036   1.474   1.850  -1.826  0.1025 -0.7709 -0.9094
   12PEO   H13B 8037   1.651   1.827  -1.819 -0.3422  0.4031  0.9044
   12PEO   O13C 8038   1.572   1.994  -1.933 -0.1008  0.1079 -1.2655
   12PEO   H13D 8039   1.559   2.091  -1.751 -0.7622  3.4032  0.9068
   12PEO   H13E 8040   1.404   2.083  -1.843  0.6184 -1.3449  2.9656
   12PEO   C13F 8041   1.513   2.096  -1.851  0.4165 -0.7932 -0.0274
   12PEO   C140 8042   1.554   2.234  -1.910 -0.0924  0.0881  0.0248
   12PEO   H141 8043   1.561   2.223  -2.019  0.5774  2.7238 -0.2711
   12PEO   H142 8044   1.477   2.310  -1.888 -1.9702 -1.7722  0.1370
   12PEO   O143 8045   1.684   2.268  -1.850 -0.0120  0.0785 -0.5708
   12PEO   H144 8046   1.662   2.476  -1.882  0.1882 -0.0167  0.2856
   12PEO   H145 8047   1.756   2.390  -2.013  1.4410 -1.3372  0.1277
   12PEO   C146 8048   1.731   2.394  -1.906 -0.0359 -0.0569 -0.2361
   12PEO   C147 8049   1.870   2.414  -1.838 -0.0889  0.1900 -0.1301
   12PEO   H148 8050   1.917   2.316  -1.826  0.1312  0.5447  2.2702
   12PEO   H149 8051   1.922   2.475  -1.914 -1.0704  2.8160  1.1890
   12PEO   O14A 8052   1.871   2.483  -1.715 -0.5287  0.5125 -0.6808
   12PEO   H14B 8053   1.909   2.304  -1.596 -0.6339 -0.0902 -1.5798
   12PEO   H14C 8054   1.936   2.466  -1.513 -0.5436  0.7489 -1.0951
   12PEO   C14D 8055   1.941   2.409  -1.606  0.2561 -0.2376 -0.4697
   12PEO   C14E 8056   2.086   2.389  -1.647 -0.2137 -0.6967 -0.3099
   12PEO   H14F 8057   2.134   2.347  -1.558 -1.8527  2.0047  2.0103
   12PEO   H150 8058   2.103   2.316  -1.728  3.4976 -1.5246  1.0643
   12PEO   O151 8059   2.141   2.507  -1.695 -0.2010  0.0804 -0.5366
   12PEO   H152 8060   2.313   2.496  -1.821 -0.7896 -1.2750 -0.7797
   12PEO   H153 8061   2.319   2.421  -1.666 -0.5447 -1.8247 -2.7915
   12PEO   C154 8062   2.284   2.512  -1.716 -0.0529 -0.3914 -0.6963
   12PEO   C155 8063   2.344   2.645  -1.666  1.1423 -0.0156 -0.6324
   12PEO   H156 8064   2.449   2.639  -1.699  0.9806 -4.0192 -0.8888
   12PEO   H157 8065   2.287   2.724  -1.717 -1.3281  0.1283  2.0368
   12PEO   O158 8066   2.340   2.665  -1.525 -0.5224 -0.5812  0.0323
   12PEO   H159 8067   2.393   2.877  -1.500 -1.6294 -0.1800  1.6043
   12PEO   H15A 8068   2.528   2.768  -1.510 -0.1094  2.3579 -1.7162
   12PEO   C15B 8069   2.422   2.773  -1.478  0.1265 -0.1431 -0.3027
   12PEO   C15C 8070   2.417   2.770  -1.323  0.0074 -0.0608  0.4169
   12PEO   H15D 8071   2.451   2.666  -1.306  0.3857  0.0107  0.1275
   12PEO   H15E 8072   2.492   2.844  -1.290 -1.6837  0.6046  3.1116
   12PEO   O15F 8073   2.289   2.798  -1.261  0.1485 -0.5408  0.0190
   12PEO   H160 8074   2.247   2.596  -1.225  2.3279  0.3443 -1.7871
   12PEO   H161 8075   2.166   2.662  -1.370 -0.5779  1.7280 -0.5708
   12PEO   C162 8076   2.197   2.684  -1.266 -0.1421 -0.2234 -0.2365
   12PEO   C163 8077   2.066   2.716  -1.192 -0.0634 -0.1661  0.1097
   12PEO   H164 8078   2.015   2.803  -1.239  2.7992  0.7426 -1.5704
   12PEO   H165 8079   2.003   2.627  -1.204  0.9875 -0.7576 -1.3114
   12PEO   O166 8080   2.081   2.737  -1.057 -0.3602 -0.5420 -0.0859
   12PEO   H167 8081   1.917   2.869  -1.006 -2.1459  0.4023  1.1399
   12PEO   H168 8082   2.005   2.792  -0.875  0.6291  3.0744 -1.1469
   12PEO   C169 8083   1.966   2.775  -0.976 -0.5502  0.6928 -0.3841
   12PEO   C16A 8084   1.861   2.662  -0.975 -0.1920  0.3548 -0.1349
   12PEO   H16B 8085   1.904   2.564  -1.002 -2.1305 -0.1033 -1.8786
   12PEO   H16C 8086   1.810   2.658  -0.878  1.3703 -2.1167  0.6591
   12PEO   O16D 8087   1.770   2.701  -1.074  0.0883  0.1714 -0.0223
   12PEO   H16E 8088   1.618   2.561  -1.084  0.1468  0.5734  1.1531
   12PEO   H16F 8089   1.775   2.515  -1.160  0.6903  0.1895  0.0844
   12PEO   C170 8090   1.703   2.597  -1.144 -0.0354 -0.4685  0.2475
   12PEO   C171 8091   1.662   2.651  -1.277  0.8335 -0.1800 -0.0897
   12PEO   H172 8092   1.587   2.583  -1.320 -3.8944  2.8917  2.4574
   12PEO   H173 8093   1.617   2.750  -1.269  4.7451  1.7555  0.6571
   12PEO   O174 8094   1.781   2.668  -1.356  0.1828  0.3008 -0.2946
   12PEO   H175 8095   1.702   2.835  -1.459  0.0859 -0.4366  0.2935
   12PEO   H176 8096   1.696   2.677  -1.531 -2.3814  0.0383  0.4819
   12PEO   C177 8097   1.761   2.744  -1.473 -0.5126 -0.6947 -0.6680
   12PEO   C178 8098   1.895   2.772  -1.549  0.4106  0.8940  0.2218
   12PEO   H179 8099   1.961   2.686  -1.529 -1.1324 -0.5985 -0.7980
   12PEO   H17A 8100   1.867   2.771  -1.655  0.2548 -2.4401  0.1763
   12PEO   O17B 8101   1.956   2.893  -1.507 -0.4389  0.1886  0.1658
   12PEO   H17C 8102   2.080   2.936  -1.671 -0.8097 -0.1615 -1.5410
   12PEO   H17D 8103   2.143   2.836  -1.528 -1.0352  0.2115  0.3600
   12PEO   C17E 8104   2.081   2.920  -1.562  0.0304  0.3080 -1.4691
   12PEO   C17F 8105   2.132   3.056  -1.507  0.3081  0.6007 -0.4009
   12PEO   H180 8106   2.139   3.044  -1.398 -1.8726  2.2940 -0.0168
   12PEO   H181 8107   2.235   3.056  -1.547  1.3015 -3.6651  1.5470
   12PEO   O182 8108   2.043   3.167  -1.552 -0.8548  0.0975  0.6018
   12PEO   H183 8109   2.175   3.325  -1.504  0.1631  0.4977  2.1645
   12PEO   H184 8110   2.068   3.269  -1.382  3.3618  2.0743  0.8158
   12PEO   C185 8111   2.072   3.290  -1.490 -0.1084  0.4534  0.2295
   12PEO   C186 8112   1.971   3.401  -1.529 -0.3563  0.1452 -0.0515
   12PEO   H187 8113   1.866   3.370  -1.534 -0.0062 -0.9169 -2.4728
   12PEO   H188 8114   1.981   3.485  -1.459  4.0380 -1.0712  1.0766
   12PEO   O189 8115   2.014   3.437  -1.671 -0.1729 -0.3852 -0.9236
   12PEO   H18A 8116   1.949   3.644  -1.679  1.3164  0.8582 -1.3433
   12PEO   H18B 8117   1.841   3.514  -1.747 -0.0051  1.2066  0.6859
   12PEO   C18C 8118   1.944   3.547  -1.732  0.4540  0.2003 -0.1148
   12PEO   C18D 8119   2.012   3.568  -1.870 -0.2270 -0.5555  0.1987
   12PEO   H18E 8120   2.031   3.476  -1.927 -0.3777 -0.2627 -0.3214
   12PEO   H18F 8121   1.950   3.626  -1.940  0.7626  2.2855  1.5208
   12PEO   O190 8122   2.137   3.628  -1.839  0.0609 -1.5632  0.1650
   12PEO   H191 8123   2.118   3.764  -1.997 -0.7324  0.1010  1.5128
   12PEO   H192 8124   2.201   3.620  -2.041 -0.7790 -0.4386 -0.5070
   12PEO   C193 8125   2.187   3.688  -1.956 -0.1104 -0.4215 -0.4054
   12PEO   C194 8126   2.328   3.742  -1.916  0.4859  0.2108 -0.1201
   12PEO   H195 8127   2.370   3.690  -1.829  1.1006 -0.8937 -1.0510
   12PEO   H196 8128   2.403   3.727  -1.994  1.5570  1.0653  0.7160
   12PEO   O197 8129   2.325   3.882  -1.887  0.7210  0.7580  0.6668
   12PEO   H198 8130   2.163   3.870  -1.737 -2.3671  0.9390 -0.2427
   12PEO   H199 8131   2.151   3.990  -1.873  0.0305 -2.3606 -2.2902
   12PEO   C19A 8132   2.219   3.933  -1.808 -0.4183 -0.2714  0.1546
   12PEO   C19B 8133   2.270   4.056  -1.719 -0.3872 -0.9177  0.2691
   12PEO   H19C 8134   2.326   4.126  -1.782 -0.8490  0.5937  1.4611
   12PEO   H19D 8135   2.176   4.105  -1.688 -1.5264 -0.6327 -3.2497
   12PEO   O19E 8136   2.344   4.015  -1.598  0.1529 -0.1516 -0.2184
   12PEO   H19F 8137   2.247   4.129  -1.462 -0.0339 -0.8809 -0.5916
   12PEO   H1A0 8138   2.387   4.212  -1.554 -2.8204  1.9469  0.3929
   12PEO   C1A1 8139   2.352   4.125  -1.496  0.4011  0.5403  0.4797
   12PEO   C1A2 8140   2.437   4.082  -1.374  0.5795 -0.5834  0.1800
   12PEO   H1A3 8141   2.524   4.024  -1.410  0.5176  0.3426 -1.5223
   12PEO   H1A4 8142   2.480   4.173  -1.330 -0.7323 -1.0712  2.6597
   12PEO   O1A5 8143   2.366   4.010  -1.271  0.8317 -0.4481  0.4081
   12PEO   H1A6 8144   2.503   3.849  -1.236 -0.5204 -0.9991  2.3453
   12PEO   H1A7 8145   2.376   3.860  -1.128 -1.0914 -4.0813 -3.4336
   12PEO   C1A8 8146   2.442   3.926  -1.187 -1.2806 -0.1863  0.2470
   12PEO   C1A9 8147   2.517   4.009  -1.083 -0.8581 -0.3246 -0.1592
   12PEO   H1AA 8148   2.453   4.091  -1.048 -1.1379  0.1352 -1.6979
   12PEO   H1AB 8149   2.542   3.931  -1.009 -2.0871 -0.1353  0.4876
   12PEO   O1AC 8150   2.637   4.069  -1.135  0.2251  0.5007  0.4622
   12PEO   H1AD 8151   2.721   3.913  -1.248  0.1903 -2.8932  2.3374
   12PEO   H1AE 8152   2.743   3.894  -1.073 -1.6692 -1.5837 -1.3970
   12PEO   C1AF 8153   2.744   3.967  -1.155  0.6322  0.5410  0.3871
   12PEO   C1B0 8154   2.888   4.031  -1.169  0.4938  0.3331 -0.0156
   12PEO   H1B1 8155   2.912   4.090  -1.080  3.2893  2.7356 -2.1771
   12PEO   H1B2 8156   2.950   3.941  -1.181  1.4369  1.1896 -1.9012
   12PEO   O1B3 8157   2.885   4.102  -1.285  0.3937 -0.4444  0.6469
   12PEO   H1B4 8158   3.082   4.057  -1.317  0.9998  0.4227 -0.8488
   12PEO   H1B5 8159   3.053   4.216  -1.259 -3.0446  0.8361  0.9047
   12PEO   C1B6 8160   3.014   4.143  -1.331  0.1170 -0.1198  0.0121
   12PEO   C1B7 8161   3.013   4.197  -1.474  0.2236 -0.0748 -0.3333
   12PEO   H1B8 8162   2.917   4.247  -1.489 -0.9358 -0.1174  4.9983
   12PEO   H1B9 8163   3.094   4.271  -1.467 -1.3461  1.6533  0.1020
   12PEO   O1BA 8164   3.038   4.100  -1.571  0.1960  1.2088  0.6526
   12PEO   H1BB 8165   3.185   4.213  -1.653 -0.6385  0.8875  0.6190
   12PEO   H1BC 8166   3.028   4.230  -1.723  0.6978  1.4884  1.8612
   12PEO   C1BD 8167   3.099   4.154  -1.689 -0.2328  0.1229  0.8882
   12PEO   C1BE 8168   3.123   4.041  -1.791  0.0999 -0.1241  0.1200
   12PEO   H1BF 8169   3.028   3.993  -1.821 -0.3237  1.3415 -1.0557
   12PEO   H1C0 8170   3.159   4.092  -1.882 -4.3629  4.2656  0.3420
   12PEO   O1C1 8171   3.209   3.935  -1.738 -0.1921  0.3594  0.0549
   12PEO   H1C2 8172   3.128   3.780  -1.842  0.6510 -0.6654  1.0112
   12PEO   H1C3 8173   3.295   3.747  -1.766 -0.3163  0.3437  0.6789
   12PEO   C1C4 8174   3.228   3.818  -1.817  0.4794  0.5785 -0.0745
   12PEO   C1C5 8175   3.281   3.856  -1.951  0.4687  0.2725  0.5510
   12PEO   H1C6 8176   3.294   3.769  -2.017  0.3334 -0.6352  1.6831
   12PEO   H1C7 8177   3.198   3.908  -2.000 -0.0511  0.1024  1.2312
   12PEO   O1C8 8178   3.396   3.936  -1.939 -0.4403  0.2052  0.4350
   12PEO   H1C9 8179   3.501   3.761  -1.884 -3.0229  0.4707 -0.6982
   12PEO   H1CA 8180   3.554   3.911  -1.807 -0.9707 -0.3104  0.6391
   12PEO   C1CB 8181   3.516   3.869  -1.901  0.1237  0.2363 -0.0826
   12PEO   C1CC 8182   3.620   3.887  -2.011 -0.8749 -0.1230 -0.3707
   12PEO   H1CD 8183   3.627   3.997  -2.016 -0.9300  0.2534  4.1154
   12PEO   H1CE 8184   3.720   3.857  -1.975 -0.8968  0.4115  0.1452
   12PEO   O1CF 8185   3.575   3.836  -2.136  0.2610  0.3396  0.1737
   12PEO   H1D0 8186   3.527   3.640  -2.058  1.4708 -0.1456  1.1312
   12PEO   H1D1 8187   3.694   3.674  -2.107 -0.5887 -3.1806  0.8890
   12PEO   C1D2 8188   3.589   3.688  -2.136  0.0225 -0.3812 -0.2240
   12PEO   C1D3 8189   3.561   3.618  -2.273  0.4989  0.1897 -0.3249
   12PEO   H1D4 8190   3.566   3.694  -2.353 -1.3889 -0.4094 -1.0566
   12PEO   H1D5 8191   3.643   3.546  -2.285 -0.6061 -1.3706  1.0744
   12PEO   O1D6 8192   3.435   3.546  -2.270 -0.1120  0.2071  0.2741
   12PEO   H1D7 8193   3.298   3.672  -2.382 -1.9258 -0.5442 -0.1724
   12PEO   H1D8 8194   3.339   3.722  -2.209  3.8730  0.3846 -1.0551
   12PEO   C1D9 8195   3.321   3.640  -2.279 -0.1320  0.3606 -0.2458
   12PEO   C1DA 8196   3.206   3.553  -2.232 -0.2953 -0.4820  0.9682
   12PEO   H1DB 8197   3.110   3.589  -2.271  0.3843  2.1606  1.5301
   12PEO   H1DC 8198   3.220   3.453  -2.276  0.3624 -0.2957  0.7518
   12PEO   O1DD 8199   3.193   3.553  -2.088 -0.3012 -0.1958 -0.4371
   12PEO   H1DE 8200   3.150   3.354  -2.050 -0.2743 -0.5983  1.2288
   12PEO   H1DF 8201   3.007   3.449  -2.092  0.5651 -0.5971  0.0345
   12PEO   C1E0 8202   3.103   3.452  -2.039  0.7819  0.1294 -0.3917
   12PEO   C1E1 8203   3.079   3.468  -1.880 -0.5080 -0.3116  0.4314
   12PEO   H1E2 8204   3.031   3.374  -1.847 -1.7261 -0.2907 -1.1696
   12PEO   H1E3 8205   3.163   3.480  -1.810 -1.4933 -2.9969  2.2362
   12PEO   O1E4 8206   2.985   3.573  -1.874 -0.7472 -0.0083 -0.1240
   12PEO   H1E5 8207   2.999   3.616  -1.664  0.5737 -0.5055 -0.0860
   12PEO   H1E6 8208   2.865   3.521  -1.708  2.5281  1.0284  5.6326
   12PEO   C1E7 8209   2.928   3.602  -1.747  0.5819  0.2245 -0.2215
   12PEO   C1E8 8210   2.841   3.729  -1.753 -0.1515  0.0458  0.1016
   12PEO   H1E9 8211   2.806   3.749  -1.650  0.4290 -2.5279  0.8661
   12PEO   H1EA 8212   2.892   3.821  -1.785 -2.9576  1.2567 -1.2727
   12PEO   O1EB 8213   2.732   3.707  -1.847  0.1191  0.8746 -0.0704
   12PEO   H1EC 8214   2.598   3.816  -1.984  0.0199 -0.1166 -2.0162
   12PEO   H1ED 8215   2.752   3.891  -1.944 -0.7476 -0.3924 -0.9379
   12PEO   C1EE 8216   2.670   3.830  -1.902 -0.8204 -0.4729 -1.1924
   12PEO   C1EF 8217   2.621   3.922  -1.788  0.9407 -0.0032  0.0743
   12PEO   H1F0 8218   2.544   3.993  -1.821 -0.3851 -0.4961  1.8865
   12PEO   H1F1 8219   2.577   3.861  -1.706  1.2418  2.5217  2.2450
   12PEO   O1F2 8220   2.738   3.995  -1.750  0.1404 -0.0141 -0.4916
   12PEO   H1F3 8221   2.790   4.091  -1.560 -2.2325  2.8583  1.3614
   12PEO   H1F4 8222   2.625   4.076  -1.594  0.1570 -1.6755 -1.1441
   12PEO   C1F5 8223   2.720   4.096  -1.646  0.0208 -0.2217 -0.8746
   12PEO   C1F6 8224   2.700   4.246  -1.689 -0.7391  0.0310  0.0817
   12PEO   H1F7 8225   2.728   4.317  -1.610 -0.6011  0.0437  0.0212
   12PEO   H1F8 8226   2.774   4.265  -1.768 -0.4413  0.3896  0.4397
   12PEO   O1F9 8227   2.573   4.257  -1.740 -0.1161 -0.3638 -0.2032
   12PEO   H1FA 8228   2.608   4.459  -1.802 -0.8010  1.8229 -0.0707
   12PEO   H1FB 8229   2.525   4.437  -1.652 -0.9616 -0.2670  0.4783
   12PEO   C1FC 8230   2.532   4.396  -1.754 -0.3290  1.2119 -0.1095
   12PEO   C1FD 8231   2.394   4.417  -1.829 -0.7034  0.2432 -0.5855
   12PEO   H1FE 8232   2.372   4.523  -1.846 -0.4975  0.4514  0.3795
   12PEO   H1FF 8233   2.395   4.379  -1.932 -1.3431 -0.3104 -0.3976
   12PEO   O200 8234   2.292   4.372  -1.737  0.3190  0.1908 -0.2019
   12PEO   H201 8235   2.176   4.552  -1.723 -0.9847 -0.1828  0.6417
   12PEO   H202 8236   2.322   4.544  -1.619 -1.3587  1.7281  0.7830
   12PEO   C203 8237   2.240   4.485  -1.663 -0.0787  0.2814  0.2072
   12PEO   C204 8238   2.160   4.431  -1.541  0.0141 -0.8930  0.2507
   12PEO   H205 8239   2.226   4.356  -1.493  3.1387 -0.9974 -3.6132
   12PEO   H206 8240   2.142   4.517  -1.476 -0.5448 -2.4310  2.2357
   12PEO   O207 8241   2.036   4.376  -1.590  0.2292  0.0847 -0.1451
   12PEO   H208 8242   1.923   4.329  -1.413 -0.3201 -2.1680 -0.6707
   12PEO   H209 8243   1.833   4.330  -1.571  1.1145 -2.1319 -0.0959
   12PEO   C20A 8244   1.909   4.380  -1.509  0.0695 -0.6636  0.0413
   12PEO   C20B 8245   1.863   4.534  -1.499 -0.5162 -1.0456 -1.2761
   12PEO   H20C 8246   1.898   4.584  -1.590 -0.8725  3.7149  0.8986
   12PEO   H20D 8247   1.754   4.545  -1.486  0.0116  2.3586  2.6029
   12PEO   O20E 8248   1.914   4.601  -1.379 -0.2612 -0.3966 -0.2243
   12PEO   H20F 8249   1.814   4.484  -1.231 -0.5568  0.9938  0.9278
   12PEO   H210 8250   1.755   4.650  -1.262 -1.2747 -0.4101 -0.1453
   12PEO   C211 8251   1.845   4.586  -1.254 -0.4615  0.6902 -0.3787
   12PEO   C212 8252   1.946   4.632  -1.144  0.1778  0.2850 -0.2972
   12PEO   H213 8253   1.930   4.575  -1.051  0.3126  0.0526 -0.4152
   12PEO   H214 8254   2.039   4.601  -1.194  0.6807  1.4502 -0.1207
   12PEO   O215 8255   1.947   4.774  -1.126  0.3869  0.7598  0.4639
   12PEO   H216 8256   2.147   4.809  -1.101  0.0357 -0.2076 -0.5292
   12PEO   H217 8257   2.076   4.720  -0.969  3.5911 -0.1566 -1.3000
   12PEO   C218 8258   2.056   4.801  -1.041  0.3736  0.4411  0.0836
   12PEO   C219 8259   2.048   4.941  -0.979 -0.1353 -0.3118  0.4172
   12PEO   H21A 8260   2.144   4.974  -0.936 -1.0871  1.2144  1.5009
   12PEO   H21B 8261   2.020   5.007  -1.062 -1.4504  1.3307  2.0739
   12PEO   O21C 8262   1.943   4.947  -0.886  0.0340  0.7277  0.2103
   12PEO   H21D 8263   1.825   5.055  -0.760 -2.6298  2.3525 -1.8942
   12PEO   H21E 8264   1.877   5.150  -0.903 -2.4643 -0.4978  0.6507
   12PEO   C21F 8265   1.907   5.074  -0.830 -0.3733 -0.6202 -0.2802
   12PEO   C220 8266   2.026   5.143  -0.757 -0.5661 -0.0645 -0.0075
   12PEO   H221 8267   1.992   5.212  -0.678  0.4565  1.4647 -0.8655
   12PEO   H222 8268   2.086   5.064  -0.709 -2.8064 -2.0418 -0.2697
   12PEO   O223 8269   2.113   5.198  -0.857 -0.0209  0.0248  0.0202
   12PEO   H224 8270   2.286   5.220  -0.733  0.2357  0.4141 -0.6979
   12PEO   H225 8271   2.196   5.371  -0.753  0.7444  1.4184 -3.0353
   12PEO   C226 8272   2.225   5.278  -0.803  0.0449 -0.0293 -0.9034
   12PEO   C227 8273   2.310   5.298  -0.930  0.3387 -0.2586  0.2637
   12PEO   H228 8274   2.406   5.342  -0.900  0.2206 -0.1891  0.5378
   12PEO   H229 8275   2.330   5.200  -0.976 -0.1164 -0.7124  1.0266
   12PEO   O22A 8276   2.237   5.375  -1.027  0.4440 -0.2806 -0.0813
   12PEO   H22B 8277   2.402   5.423  -1.134  0.5485 -0.0357  2.6363
   12PEO   H22C 8278   2.341   5.564  -1.039 -1.0826 -0.7562  1.2816
   12PEO   C22D 8279   2.313   5.474  -1.096 -0.7086 -0.0396 -0.0781
   12PEO   C22E 8280   2.244   5.522  -1.214 -0.9093  0.3274 -0.0284
   12PEO   H22F 8281   2.136   5.542  -1.213 -1.7426 -3.2188 -1.6798
   12PEO   H230 8282   2.288   5.620  -1.237  1.3627 -0.6575 -0.1236
   12PEO   O231 8283   2.270   5.438  -1.327  0.2193  0.3343 -0.4007
   12PEO   H232 8284   2.074   5.363  -1.360 -0.6242 -1.5432  0.7047
   12PEO   H233 8285   2.157   5.279  -1.237  1.7005 -1.3802 -0.6751
   12PEO   C234 8286   2.174   5.327  -1.334  0.4174  0.6507  0.0166
   12PEO   C235 8287   2.228   5.226  -1.429 -0.3518 -0.5191  0.0624
   12PEO   H236 8288   2.143   5.159  -1.447  0.1168 -1.2078  0.3633
   12PEO   H237 8289   2.256   5.277  -1.522 -1.8468  0.2888  0.0382
   12PEO   O238 8290   2.332   5.143  -1.368  0.7064  0.6152  0.7257
   12PEO   H239 8291   2.441   5.283  -1.275  1.1482 -0.4189  0.0718
   12PEO   H23A 8292   2.488   5.239  -1.450 -2.6069 -0.4391 -1.1642
   12PEO   C23B 8293   2.458   5.204  -1.350  0.5718 -0.4079 -0.0687
   12PEO   C23C 8294   2.562   5.103  -1.295 -0.0780  0.0800  0.6849
   12PEO   H23D 8295   2.561   5.009  -1.351  2.3111 -0.4331  1.3838
   12PEO   H23E 8296   2.659   5.154  -1.299  0.2960 -0.6884 -1.0048
   12PEO   O23F 8297   2.524   5.067  -1.164  0.1805 -0.4074 -0.1288
   12PEO   H240 8298   2.704   5.084  -1.053 -0.6768 -0.2700  2.9977
   12PEO   H241 8299   2.684   4.939  -1.149  0.3197  1.0761  0.2692
   12PEO   C242 8300   2.629   5.010  -1.085 -0.3015  0.3255  0.5789
   12PEO   C243 8301   2.585   4.946  -0.947  0.1464  0.5813  0.5404
   12PEO   H244 8302   2.512   4.865  -0.963 -0.0962  1.1603 -1.6448
   12PEO   H245 8303   2.680   4.908  -0.905  2.1379  2.7317 -1.6407
   12PEO   O246 8304   2.532   5.051  -0.868 -0.3947 -0.4978 -0.0057
   12PEO   H247 8305   2.714   5.171  -0.847  0.4977 -3.3566 -1.5383
   12PEO   H248 8306   2.707   5.040  -0.736  0.0246 -0.1148 -0.9356
   12PEO   C249 8307   2.642   5.114  -0.786 -0.8140  0.1929  0.5448
   12PEO   C24A 8308   2.579   5.200  -0.676  0.1897 -0.1355 -0.1676
   12PEO   H24B 8309   2.478   5.157  -0.662  0.4446 -0.1581  1.9957
   12PEO   H24C 8310   2.636   5.190  -0.582 -1.2541  0.8381  0.8542
   12PEO   O24D 8311   2.568   5.340  -0.717  0.0100 -0.0438  0.2262
   12PEO   H24E 8312   2.564   5.415  -0.529 -2.5891 -1.7383  0.8925
   12PEO   H24F 8313   2.405   5.385  -0.602  0.4462 -2.5140 -0.8866
   12PEO   C250 8314   2.505   5.427  -0.621 -0.3772 -0.2563 -0.4433
   12PEO   C251 8315   2.485   5.574  -0.652  0.8099  0.6661  0.6247
   12PEO   H252 8316   2.460   5.628  -0.560 -2.4428 -1.9804  1.4565
   12PEO   H253 8317   2.577   5.621  -0.690  0.4002  1.8234  1.0154
   12PEO   O254 8318   2.378   5.591  -0.747 -0.3569 -0.3490 -0.0628
   12PEO   H255 8319   2.312   5.732  -0.888  0.1098  0.6181 -0.2756
   12PEO   H256 8320   2.475   5.765  -0.835  0.2669 -1.4451 -0.2428
   12PEO   C257 8321   2.378   5.726  -0.800 -0.3795  0.3250  0.0745
   12PEO   C258 8322   2.324   5.825  -0.691  0.4386 -0.4148  0.0164
   12PEO   H259 8323   2.385   5.820  -0.600  0.6266  3.5448  0.2587
   12PEO   H25A 8324   2.347   5.926  -0.728 -0.0776 -0.6048 -0.8648
   12PEO   O25B 8325   2.182   5.814  -0.654  0.6816  0.2468 -0.2970
   12PEO   H25C 8326   2.221   5.661  -0.515 -0.3610 -2.4942  0.6014
   12PEO   H25D 8327   2.148   5.603  -0.665  0.4033  1.9111 -2.0582
   12PEO   C25E 8328   2.148   5.686  -0.593  0.2069 -0.3180  0.6898
   12PEO   C25F 8329   1.999   5.690  -0.539  0.0378  0.0327 -0.0609
   12PEO   H260 8330   2.009   5.602  -0.473 -0.8896  0.0077  0.0580
   12PEO   H261 8331   1.988   5.781  -0.479  2.4075 -0.9554  2.0327
   12PEO   O262 8332   1.904   5.653  -0.639  0.5248  0.2630 -0.2904
   12PEO   H263 8333   1.762   5.804  -0.605  3.8822  0.7032  1.3028
   12PEO   H264 8334   1.739   5.653  -0.511 -0.2027 -3.7242 -1.1229
   12PEO   C265 8335   1.770   5.695  -0.609  0.2300  0.3509  0.5399
   12PEO   C266 8336   1.680   5.621  -0.710  1.0250  0.0668  0.0669
   12PEO   H267 8337   1.573   5.641  -0.694  1.4563  1.7233  1.1224
   12PEO   H268 8338   1.690   5.676  -0.804 -0.8681 -1.7720 -1.2933
   12PEO   O269 8339   1.690   5.478  -0.711  0.1777  0.3438 -0.3799
   12PEO   H26A 8340   1.506   5.432  -0.797  0.1971  0.4491  2.5753
   12PEO   H26B 8341   1.615   5.301  -0.798  0.5619 -0.7255 -0.8699
   12PEO   C26C 8342   1.612   5.410  -0.812 -0.3247 -0.6516 -0.2214
   12PEO   C26D 8343   1.665   5.452  -0.946  0.3233 -0.1761 -0.4486
   12PEO   H26E 8344   1.588   5.417  -1.016 -0.7148 -3.1021  1.9067
   12PEO   H26F 8345   1.663   5.558  -0.972 -0.8513 -0.4909 -1.7653
   12PEO   O270 8346   1.793   5.387  -0.978  0.7456 -0.0336  0.0472
   12PEO   H271 8347   1.998   5.389  -0.966 -0.1374  1.1657 -0.3732
   12PEO   H272 8348   1.927   5.453  -0.828 -0.8555 -0.6151  0.4435
   12PEO   C273 8349   1.912   5.451  -0.937 -0.3727  0.5100  0.3482
   12PEO   C274 8350   1.921   5.593  -0.999 -0.5928 -0.5559 -0.3214
   12PEO   H275 8351   1.846   5.635  -0.931 -1.9338  0.6712 -2.4336
   12PEO   H276 8352   2.023   5.633  -0.989 -1.0466  0.6398 -0.2667
   12PEO   O277 8353   1.862   5.607  -1.135  0.2315 -0.3378 -0.6375
   12PEO   H278 8354   1.995   5.748  -1.208  1.0736 -2.1546 -0.0079
   12PEO   H279 8355   1.837   5.821  -1.181 -1.6081  1.1945 -4.7480
   12PEO   C27A 8356   1.887   5.727  -1.211  0.5204  0.3753  0.2473
   12PEO   C27B 8357   1.831   5.708  -1.353  0.2261  0.2239 -0.0669
   12PEO   H27C 8358   1.735   5.662  -1.326  0.1900  1.5912  2.3636
   12PEO   H27D 8359   1.813   5.808  -1.394 -2.5704  0.1599  0.7837
   12PEO   O27E 8360   1.908   5.629  -1.446 -0.2822  0.1460  0.8412
   12PEO   H27F 8361   1.945   5.785  -1.586 -1.8477  0.3269 -1.0267
   12PEO   H280 8362   1.807   5.683  -1.616  0.7588  0.5194 -2.0045
   12PEO   C281 8363   1.911   5.681  -1.578  0.0117 -0.2385  0.1962
   12PEO   C282 8364   2.000   5.587  -1.663  0.7902  0.1648 -0.3198
   12PEO   H283 8365   2.019   5.634  -1.760 -1.0666  0.3404 -0.6312
   12PEO   H284 8366   2.090   5.604  -1.602  1.2689  0.2439 -1.0296
   12PEO   O285 8367   1.945   5.451  -1.664 -0.3738  0.0816 -0.0100
   12PEO   H286 8368   2.029   5.252  -1.657  0.3067 -0.6723 -0.1086
   12PEO   H287 8369   2.138   5.389  -1.686 -1.5283  0.1038  1.7274
   12PEO   C288 8370   2.039   5.348  -1.711 -0.8243 -0.5657 -0.1593
   12PEO   C289 8371   2.024   5.329  -1.855  0.0047  0.1130  0.6080
   12PEO   H28A 8372   1.935   5.386  -1.887 -0.7422 -0.5916  1.3518
   12PEO   H28B 8373   2.109   5.367  -1.913 -1.3298  0.3068 -1.3074
   12PEO   O28C 8374   2.002   5.189  -1.897  0.6307 -0.2759  0.1450
   12PEO   H28D 8375   2.048   5.208  -2.102 -1.1223  0.4838 -1.7759
   12PEO   H28E 8376   1.872   5.227  -2.067  0.6905 -0.3087  0.5375
   12PEO   C28F 8377   1.966   5.178  -2.036  0.6675 -0.6798  0.0299
   12PEO   C290 8378   1.950   5.022  -2.066 -0.1301 -0.0612 -0.4454
   12PEO   H291 8379   1.910   4.965  -1.982  1.0547  0.2439  0.3565
   12PEO   H292 8380   1.884   5.004  -2.152 -1.4232 -0.1356  0.5368
   12PEO   O293 8381   2.082   4.965  -2.091 -0.2623 -0.2053  0.2255
   12PEO   H294 8382   2.177   4.789  -2.163 -0.6229 -2.6420 -0.3759
   12PEO   H295 8383   2.018   4.797  -2.206  0.5065  0.2647  0.3025
   12PEO   C296 8384   2.081   4.820  -2.120  0.5300  0.2054  0.3017
   12PEO   C297 8385   2.050   4.729  -2.000  0.6387  0.1263 -0.8275
   12PEO   H298 8386   1.945   4.754  -1.975  0.7629  1.4580 -1.5454
   12PEO   H299 8387   2.046   4.623  -2.030 -0.3271 -0.8515  2.3392
   12PEO   O29A 8388   2.144   4.751  -1.886 -1.0085  0.0065 -0.5150
   12PEO   H29B 8389   2.000   4.826  -1.755 -0.0614  3.1467  0.6049
   12PEO   H29C 8390   2.093   4.946  -1.862 -1.3035 -0.2626 -0.1301
   12PEO   C29D 8391   2.096   4.853  -1.802  0.8487  0.1387  0.4813
   12PEO   C29E 8392   2.196   4.896  -1.699  0.1884 -0.3168 -0.2669
   12PEO   H29F 8393   2.290   4.922  -1.750 -0.0009  0.1673 -0.3767
   12PEO   H2A0 8394   2.155   4.986  -1.650  0.7534 -1.2758  2.1400
   12PEO   O2A1 8395   2.208   4.799  -1.594  0.4308  0.8206  0.2813
   12PEO   H2A2 8396   2.218   4.938  -1.447 -2.7423 -0.4423 -0.9923
   12PEO   H2A3 8397   2.377   4.883  -1.509 -0.2292 -0.6502 -0.5873
   12PEO   C2A4 8398   2.275   4.851  -1.481 -0.3300  0.4857  0.4383
   12PEO   C2A5 8399   2.284   4.749  -1.360  0.5006  0.3619 -0.6004
   12PEO   H2A6 8400   2.313   4.815  -1.277  2.1540  1.6190 -2.1017
   12PEO   H2A7 8401   2.186   4.699  -1.353  1.8538 -2.5636 -1.3211
   12PEO   O2A8 8402   2.392   4.658  -1.380  0.4674 -0.0921 -0.8604
   12PEO   H2A9 8403   2.370   4.576  -1.196  0.5897 -1.1397  2.1416
   12PEO   H2AA 8404   2.549   4.630  -1.236  0.4234 -3.3384 -0.0028
   12PEO   C2AB 8405   2.452   4.587  -1.268 -1.0039 -0.5728  0.3139
   12PEO   C2AC 8406   2.494   4.462  -1.347 -0.6139 -0.1793  0.7487
   12PEO   H2AD 8407   2.497   4.374  -1.280 -1.7083  1.6217  3.3325
   12PEO   H2AE 8408   2.425   4.454  -1.433 -0.6443  1.3021  0.6244
   12PEO   O2AF 8409   2.628   4.480  -1.402  0.2052  0.5768  0.6234
   12PEO   H2B0 8410   2.825   4.418  -1.398  0.7737 -1.5571  0.4231
   12PEO   H2B1 8411   2.715   4.291  -1.343 -0.7384  0.4477 -2.4671
   12PEO   C2B2 8412   2.731   4.400  -1.343  0.0660  0.4046 -0.0586
   12PEO   C2B3 8413   2.751   4.441  -1.192  0.0721  0.0069 -0.5301
   12PEO   H2B4 8414   2.655   4.431  -1.137  1.5404  0.3937  2.3068
   12PEO   H2B5 8415   2.826   4.378  -1.144 -0.6853 -1.6641 -1.4587
   12PEO   O2B6 8416   2.787   4.576  -1.183 -0.6727 -0.2472 -0.2834
   12PEO   H2B7 8417   2.954   4.548  -1.304 -0.3929 -2.0620  0.5688
   12PEO   H2B8 8418   2.992   4.547  -1.132 -1.4933  0.3820  0.2335
   12PEO   C2B9 8419   2.929   4.596  -1.208 -0.3497  0.5243 -0.6389
   12PEO   C2BA 8420   2.955   4.749  -1.211  0.5652 -0.4267 -0.3250
   12PEO   H2BB 8421   3.058   4.774  -1.240  0.0911  1.3594 -0.5773
   12PEO   H2BC 8422   2.876   4.776  -1.284  0.4009  0.0567  0.0258
   12PEO   O2BD 8423   2.938   4.808  -1.084 -0.1045 -0.5653  0.3423
   12PEO   H2BE 8424   2.948   4.735  -1.021 -2.2846 -0.2978  1.0589
   13PEO   H001 8425   4.550   2.654   1.575 -0.0290  1.1570  1.4482
   13PEO   H002 8426   4.403   2.549   1.535  1.2238 -1.3138 -0.7198
   13PEO   H003 8427   4.426   2.631   1.694  3.1037  1.1845  0.5630
   13PEO   C004 8428   4.477   2.579   1.611  0.4146 -0.2246 -0.3442
   13PEO   C005 8429   4.563   2.468   1.669  0.0330 -0.1629  0.7516
   13PEO   H006 8430   4.613   2.419   1.584 -0.0354  2.1302 -0.7092
   13PEO   H007 8431   4.642   2.516   1.728 -0.1667  1.6764 -0.3762
   13PEO   O008 8432   4.480   2.384   1.743  0.2963 -0.0678  0.3915
   13PEO   H009 8433   4.555   2.196   1.703  0.7664  1.6165 -1.5209
   13PEO   H00A 8434   4.462   2.204   1.854  1.0465 -3.0834 -1.9805
   13PEO   C00B 8435   4.535   2.258   1.791 -0.1682  0.2522 -0.7333
   13PEO   C00C 8436   4.661   2.291   1.883 -0.4132 -0.1900 -0.2976
   13PEO   H00D 8437   4.628   2.380   1.939  0.0523 -0.9979  1.3064
   13PEO   H00E 8438   4.674   2.216   1.962 -0.3482  0.8708  0.7279
   13PEO   O00F 8439   4.786   2.303   1.811  0.1533  0.2236 -0.5009
   13PEO   H010 8440   4.902   2.235   1.973 -0.6064  0.1612  0.1378
   13PEO   H011 8441   4.882   2.415   1.962  0.4316  0.9429 -2.1344
   13PEO   C012 8442   4.897   2.322   1.905 -0.1145 -0.2370 -0.4226
   13PEO   C013 8443   5.025   2.339   1.823 -0.0638 -0.4145 -0.0065
   13PEO   H014 8444   5.019   2.403   1.734  0.4370 -1.7256 -1.0112
   13PEO   H015 8445   5.101   2.379   1.892 -0.5222 -0.1636  0.3580
   13PEO   O016 8446   5.062   2.204   1.782  0.1664 -0.0648 -0.2458
   13PEO   H017 8447   5.194   2.090   1.666 -2.4449  0.4283 -0.1557
   13PEO   H018 8448   5.280   2.202   1.775  3.5312 -1.4021 -3.4318
   13PEO   C019 8449   5.192   2.191   1.710  0.1469  0.2947  0.4244
   13PEO   C01A 8450   5.208   2.294   1.600  0.3115  0.5743  0.3515
   13PEO   H01B 8451   5.250   2.246   1.510 -3.2667 -0.6028 -0.8448
   13PEO   H01C 8452   5.117   2.344   1.565  2.7754  3.5724 -2.4532
   13PEO   O01D 8453   5.297   2.401   1.644  0.1900 -0.2490 -0.5201
   13PEO   H01E 8454   5.428   2.431   1.497  0.7188  3.4319  2.0758
   13PEO   H01F 8455   5.457   2.280   1.570 -1.4665  0.2827 -3.4516
   13PEO   C020 8456   5.426   2.382   1.596  0.4095  0.0294  0.5361
   13PEO   C021 8457   5.545   2.452   1.678  0.5053 -0.2516 -0.0135
   13PEO   H022 8458   5.504   2.459   1.780  2.6398  0.0667  0.8712
   13PEO   H023 8459   5.637   2.392   1.684  1.2604  1.0120  1.9495
   13PEO   O024 8460   5.562   2.581   1.613  0.2514 -0.2752  0.4446
   13PEO   H025 8461   5.615   2.689   1.778  1.2340 -1.4624 -0.2372
   13PEO   H026 8462   5.631   2.766   1.619 -2.8976 -0.7460 -0.4512
   13PEO   C027 8463   5.650   2.673   1.675  0.2737 -0.4041 -0.7407
   13PEO   C028 8464   5.799   2.636   1.683 -0.5126 -0.5273  0.3786
   13PEO   H029 8465   5.840   2.593   1.591  2.3212  0.8105  0.9298
   13PEO   H02A 8466   5.843   2.732   1.713 -2.6141  0.1246  1.5668
   13PEO   O02B 8467   5.817   2.548   1.793  0.0936  0.7380  0.3992
   13PEO   H02C 8468   5.998   2.583   1.886  1.7107 -1.7111 -0.3983
   13PEO   H02D 8469   6.007   2.485   1.735 -0.7071  2.3245 -0.5917
   13PEO   C02E 8470   5.948   2.506   1.825 -1.0073 -0.3074 -0.0971
   13PEO   C02F 8471   5.942   2.379   1.915  0.2618 -1.0424  0.1063
   13PEO   H030 8472   5.888   2.294   1.870 -0.6537 -0.6898  0.5244
   13PEO   H031 8473   6.044   2.349   1.946  0.5782  2.3995  2.9292
   13PEO   O032 8474   5.862   2.425   2.019  0.1443 -0.4780 -0.5151
   13PEO   H033 8475   5.828   2.216   2.041 -0.2872 -0.0750 -0.5837
   13PEO   H034 8476   5.686   2.324   2.046  0.0381  2.1012  1.0723
   13PEO   C035 8477   5.792   2.314   2.075  0.2817  0.0407 -0.3101
   13PEO   C036 8478   5.800   2.325   2.235  0.1536  0.1045  0.3798
   13PEO   H037 8479   5.801   2.220   2.267  1.7373 -1.0562 -3.0206
   13PEO   H038 8480   5.887   2.382   2.270  1.7245 -2.5159  1.0036
   13PEO   O039 8481   5.680   2.390   2.286  0.0379 -0.2643 -0.7943
   13PEO   H03A 8482   5.604   2.462   2.480 -0.8643 -0.4084 -0.3866
   13PEO   H03B 8483   5.756   2.379   2.480 -0.6891  1.8968  0.5157
   13PEO   C03C 8484   5.658   2.380   2.430 -0.0649  0.3708 -0.8317
   13PEO   C03D 8485   5.590   2.252   2.480  0.6666  0.0413 -0.2327
   13PEO   H03E 8486   5.553   2.270   2.582  0.3113  1.7250 -0.6233
   13PEO   H03F 8487   5.500   2.229   2.422 -1.5707  1.4032  2.4505
   13PEO   O040 8488   5.684   2.145   2.481  0.0569  0.3801 -0.1180
   13PEO   H041 8489   5.572   1.991   2.400  1.6598  1.7352 -1.7336
   13PEO   H042 8490   5.615   1.992   2.575 -1.1122  0.9368 -0.4349
   13PEO   C043 8491   5.651   2.011   2.473  0.3838  0.6995  0.0225
   13PEO   C044 8492   5.783   1.930   2.438  0.0335 -0.6650  0.7203
   13PEO   H045 8493   5.862   1.965   2.508  1.3949  1.1012 -1.5691
   13PEO   H046 8494   5.770   1.823   2.459 -0.0003 -1.3736 -2.4486
   13PEO   O047 8495   5.822   1.954   2.300 -0.1957  0.6656  0.1628
   13PEO   H048 8496   5.896   1.759   2.257 -0.3940  0.0327  2.8663
   13PEO   H049 8497   6.003   1.881   2.331  0.1983 -2.5114 -1.0718
   13PEO   C04A 8498   5.923   1.866   2.257 -0.6224  0.2053 -0.8569
   13PEO   C04B 8499   5.992   1.914   2.126  0.8423 -0.1024  0.6719
   13PEO   H04C 8500   6.010   2.023   2.133 -1.1117  0.4410 -1.4953
   13PEO   H04D 8501   6.083   1.858   2.101  0.1470 -0.4144 -1.2503
   13PEO   O04E 8502   5.890   1.875   2.030 -0.1263  0.3567 -0.6466
   13PEO   H04F 8503   6.027   1.883   1.873 -0.1419 -2.7421  1.0262
   13PEO   H050 8504   5.895   1.999   1.878 -3.3774 -0.2460  2.2953
   13PEO   C051 8505   5.920   1.894   1.898 -0.1195 -0.0009  0.2240
   13PEO   C052 8506   5.827   1.801   1.818  0.0877 -0.2258 -1.1318
   13PEO   H053 8507   5.731   1.795   1.872 -0.4538  0.1680 -2.0207
   13PEO   H054 8508   5.811   1.844   1.718 -1.3154 -2.4116 -1.9236
   13PEO   O055 8509   5.894   1.676   1.815 -0.0760  0.3520 -0.3349
   13PEO   H056 8510   5.797   1.634   1.631  2.5396  1.2706 -0.5556
   13PEO   H057 8511   5.737   1.546   1.778  0.2035  0.0190 -0.0061
   13PEO   C058 8512   5.825   1.587   1.726  0.0057  0.0759 -0.3031
   13PEO   C059 8513   5.926   1.478   1.687 -0.1844 -0.6128 -0.2351
   13PEO   H05A 8514   5.997   1.443   1.763  0.0146 -0.3053 -0.2729
   13PEO   H05B 8515   5.874   1.390   1.649 -2.4176  1.5504 -2.6016
   13PEO   O05C 8516   6.029   1.530   1.607 -0.1712 -0.0949  0.1739
   13PEO   H05D 8517   5.960   1.423   1.455 -1.4916 -1.5666  2.3561
   13PEO   H05E 8518   6.080   1.334   1.552  0.4856 -0.4056 -1.9824
   13PEO   C05F 8519   6.056   1.432   1.506  0.0275  0.2056 -0.4979
   13PEO   C060 8520   6.169   1.480   1.418  0.1988 -0.0835  0.8207
   13PEO   H061 8521   6.183   1.402   1.342 -3.2232  2.5520 -2.9498
   13PEO   H062 8522   6.153   1.583   1.382  1.7018  0.7340  2.3210
   13PEO   O063 8523   6.290   1.457   1.493  0.0630 -0.5228 -1.2350
   13PEO   H064 8524   6.412   1.427   1.323  2.5408  0.3489  0.9446
   13PEO   H065 8525   6.480   1.458   1.484  0.3890 -1.2601 -0.5979
   13PEO   C066 8526   6.401   1.488   1.413 -0.4927  0.0599  0.8821
   13PEO   C067 8527   6.411   1.640   1.371 -0.3061  0.7125  0.3604
   13PEO   H068 8528   6.498   1.639   1.304 -1.7752 -0.8901 -1.6584
   13PEO   H069 8529   6.325   1.668   1.309  0.8129 -0.6578 -1.9364
   13PEO   O06A 8530   6.435   1.728   1.481  0.4069  0.3758  0.6913
   13PEO   H06B 8531   6.252   1.686   1.576 -0.4255  0.2256  0.3301
   13PEO   H06C 8532   6.257   1.823   1.463  0.5072  0.1003 -0.3488
   13PEO   C06D 8533   6.313   1.771   1.542  0.2225 -0.5816 -0.5904
   13PEO   C06E 8534   6.351   1.861   1.657  0.1837 -0.6074  0.1653
   13PEO   H06F 8535   6.255   1.870   1.709 -0.6751 -2.2317 -1.0436
   13PEO   H070 8536   6.434   1.820   1.717  1.7424  2.0354 -0.0054
   13PEO   O071 8537   6.387   1.993   1.610  0.6296  0.4215  0.4670
   13PEO   H072 8538   6.530   1.945   1.453  0.5061  1.1407 -1.9810
   13PEO   H073 8539   6.592   1.995   1.609 -1.4418  1.3605  0.4132
   13PEO   C074 8540   6.510   2.012   1.538 -0.6425 -0.3743 -0.9963
   13PEO   C075 8541   6.525   2.167   1.509  0.2603  0.6744 -0.1160
   13PEO   H076 8542   6.476   2.234   1.582  2.0616  3.1467 -1.0544
   13PEO   H077 8543   6.632   2.188   1.516  0.5872 -1.2374  3.2862
   13PEO   O078 8544   6.475   2.198   1.378 -0.3598 -0.6681 -0.6650
   13PEO   H079 8545   6.295   2.251   1.443  0.7724 -0.6399  0.8858
   13PEO   H07A 8546   6.299   2.100   1.357 -3.6108  1.0559 -2.0393
   13PEO   C07B 8547   6.343   2.200   1.359  0.1686 -0.4280  0.4068
   13PEO   C07C 8548   6.330   2.278   1.226 -0.4404 -0.5183 -0.6080
   13PEO   H07D 8549   6.414   2.270   1.155 -1.7291  0.6967 -2.3537
   13PEO   H07E 8550   6.243   2.250   1.164 -2.8121  0.2026  2.1716
   13PEO   O07F 8551   6.314   2.416   1.258 -1.0100  0.6917  0.3196
   13PEO   H080 8552   6.456   2.486   1.132  0.3260 -0.4996  3.9358
   13PEO   H081 8553   6.357   2.617   1.204 -0.6212  0.8643 -0.6589
   13PEO   C082 8554   6.354   2.516   1.160 -0.7026  0.7168 -0.3179
   13PEO   C083 8555   6.250   2.532   1.062 -0.0674  0.3267  0.0131
   13PEO   H084 8556   6.271   2.614   0.991  1.4374  0.2096  0.3014
   13PEO   H085 8557   6.230   2.439   1.006 -3.1746  0.7314  0.2555
   13PEO   O086 8558   6.135   2.577   1.137  0.0472  0.7422  0.5914
   13PEO   H087 8559   5.930   2.564   1.167 -0.1240  1.8995 -1.3584
   13PEO   H088 8560   6.016   2.412   1.118 -1.5154  0.5416  1.6073
   13PEO   C089 8561   6.009   2.520   1.104  0.0638  0.4598 -0.1920
   13PEO   C08A 8562   5.985   2.558   0.962 -0.1117  0.1065  1.5646
   13PEO   H08B 8563   6.050   2.492   0.902 -0.2078 -0.2915  1.8912
   13PEO   H08C 8564   5.888   2.515   0.934  0.0938  1.5824 -1.9454
   13PEO   O08D 8565   5.991   2.701   0.932  0.0031 -0.4288  0.2156
   13PEO   H08E 8566   5.824   2.788   1.039  3.1593  1.2659  1.4574
   13PEO   H08F 8567   5.781   2.716   0.891 -0.1319 -0.2501 -0.0800
   13PEO   C090 8568   5.863   2.773   0.937 -0.1048 -0.6205  0.3360
   13PEO   C091 8569   5.862   2.911   0.873 -0.6650 -0.6839 -0.5061
   13PEO   H092 8570   5.908   2.900   0.774 -0.0762 -0.3098 -0.2809
   13PEO   H093 8571   5.764   2.959   0.868 -0.9349 -1.0684  0.6722
   13PEO   O094 8572   5.946   2.998   0.955  0.4208 -0.0246  0.3315
   13PEO   H095 8573   5.817   3.159   0.953  0.6862  2.0844 -0.1204
   13PEO   H096 8574   5.909   3.136   0.812  1.2847 -2.9909 -0.2148
   13PEO   C097 8575   5.920   3.135   0.922  0.3108  0.1812 -0.0006
   13PEO   C098 8576   6.018   3.235   0.985 -0.1088 -0.3012 -0.1507
   13PEO   H099 8577   5.994   3.336   0.948 -0.0059  0.4542  1.7136
   13PEO   H09A 8578   6.011   3.227   1.095  0.6118  0.7302 -0.0107
   13PEO   O09B 8579   6.144   3.199   0.935 -0.3686 -0.6047 -0.0654
   13PEO   H09C 8580   6.238   3.389   0.987  0.0095  0.0761 -0.3936
   13PEO   H09D 8581   6.347   3.267   0.939  0.8959  2.3995  0.3896
   13PEO   C09E 8582   6.252   3.280   0.993  0.1938  0.1103 -0.2042
   13PEO   C09F 8583   6.277   3.243   1.137  0.2817 -0.1206 -0.5574
   13PEO   H0A0 8584   6.265   3.133   1.143 -0.6087 -0.0722 -1.2617
   13PEO   H0A1 8585   6.383   3.259   1.164  0.0886 -1.2441  1.0220
   13PEO   O0A2 8586   6.195   3.326   1.228 -0.1955  0.9003  0.1468
   13PEO   H0A3 8587   6.166   3.395   1.419  0.0650 -0.3451  0.3040
   13PEO   H0A4 8588   6.325   3.321   1.393 -0.2084  0.9961 -1.9891
   13PEO   C0A5 8589   6.218   3.312   1.368 -0.5324 -0.3524 -0.3200
   13PEO   C0A6 8590   6.162   3.179   1.429  0.6301 -0.0434  0.0767
   13PEO   H0A7 8591   6.173   3.185   1.539 -2.0322  1.6785  0.3301
   13PEO   H0A8 8592   6.055   3.191   1.408  0.9304  0.0004 -1.5280
   13PEO   O0A9 8593   6.212   3.060   1.368 -0.1506 -0.3743 -0.1448
   13PEO   H0AA 8594   6.140   2.918   1.214  1.7150  0.3940  0.0059
   13PEO   H0AB 8595   6.021   3.036   1.269 -1.0025 -2.1441 -1.2200
   13PEO   C0AC 8596   6.108   2.978   1.301  0.9487  0.9064 -0.6063
   13PEO   C0AD 8597   6.056   2.876   1.402 -0.1089 -0.6382 -0.2506
   13PEO   H0AE 8598   6.008   2.795   1.346 -0.2212  0.6519 -2.1547
   13PEO   H0AF 8599   6.146   2.849   1.459  0.4781  1.9466  0.1722
   13PEO   O0B0 8600   5.958   2.941   1.490 -0.1161  0.1209  0.3922
   13PEO   H0B1 8601   6.102   2.993   1.629 -0.1768 -1.4623  2.8291
   13PEO   H0B2 8602   5.982   2.875   1.689 -2.2898  0.1332  1.0414
   13PEO   C0B3 8603   5.997   2.963   1.624 -0.4487 -0.3658  0.7149
   13PEO   C0B4 8604   5.916   3.077   1.691  0.0235  0.0153  0.4782
   13PEO   H0B5 8605   5.936   3.079   1.799  0.7370  1.8369  0.3465
   13PEO   H0B6 8606   5.948   3.173   1.648  3.7686 -1.2808  0.0556
   13PEO   O0B7 8607   5.775   3.052   1.673  0.8280 -0.1484 -0.4222
   13PEO   H0B8 8608   5.694   3.260   1.651 -1.1799  1.3394  1.7008
   13PEO   H0B9 8609   5.711   3.210   1.807  1.0831  0.1691 -0.1518
   13PEO   C0BA 8610   5.690   3.166   1.709  0.1727  0.1809  0.0218
   13PEO   C0BB 8611   5.543   3.115   1.703 -1.0835 -0.4387  0.4109
   13PEO   H0BC 8612   5.473   3.199   1.717 -0.5602 -0.0357  0.6235
   13PEO   H0BD 8613   5.539   3.084   1.598  0.6282  1.6092 -0.3201
   13PEO   O0BE 8614   5.515   3.000   1.787  0.0599 -0.8584  0.1411
   13PEO   H0BF 8615   5.636   3.041   1.961  0.5878 -3.4092 -0.6876
   13PEO   H0C0 8616   5.510   2.923   1.980 -0.1163 -0.4466  0.4433
   13PEO   C0C1 8617   5.531   3.021   1.936 -0.3244 -0.4360  0.3646
   13PEO   C0C2 8618   5.439   3.136   1.989 -0.1865  0.2150 -0.8400
   13PEO   H0C3 8619   5.341   3.129   1.938 -0.2994 -1.2497 -0.4635
   13PEO   H0C4 8620   5.413   3.103   2.091 -2.0020 -0.9134 -1.6124
   13PEO   O0C5 8621   5.507   3.267   1.975 -0.4282  0.1938 -0.0875
   13PEO   H0C6 8622   5.367   3.351   2.107  0.8103 -0.8733 -0.4810
   13PEO   H0C7 8623   5.338   3.396   1.934  0.4924  3.0151 -0.4859
   13PEO   C0C8 8624   5.414   3.375   2.010 -0.0159 -0.0472 -0.6883
   13PEO   C0C9 8625   5.489   3.503   2.020 -1.2314 -0.5563  0.3785
   13PEO   H0CA 8626   5.547   3.509   1.927  0.0973 -1.1054  1.1468
   13PEO   H0CB 8627   5.422   3.589   2.035 -0.7521  0.0400 -0.7545
   13PEO   O0CC 8628   5.588   3.495   2.122  0.2213 -0.1483  0.0529
   13PEO   H0CD 8629   5.648   3.692   2.105  2.1641  0.2777  3.1609
   13PEO   H0CE 8630   5.752   3.575   2.006 -0.2883 -1.9815  0.2051
   13PEO   C0CF 8631   5.689   3.591   2.094 -0.6392 -0.6954 -0.2559
   13PEO   C0D0 8632   5.778   3.570   2.217  0.3021  0.5453  0.0152
   13PEO   H0D1 8633   5.786   3.461   2.234 -1.6672  0.2288 -0.8587
   13PEO   H0D2 8634   5.878   3.607   2.191  0.9507 -1.3276 -0.3646
   13PEO   O0D3 8635   5.717   3.636   2.327 -0.3798 -0.4974  0.9188
   13PEO   H0D4 8636   5.893   3.686   2.428  0.8075 -1.8132 -1.4162
   13PEO   H0D5 8637   5.824   3.536   2.471  1.6195  0.3804 -1.8610
   13PEO   C0D6 8638   5.795   3.638   2.442 -0.1965  0.4704  0.0293
   13PEO   C0D7 8639   5.717   3.694   2.567 -0.0138 -0.5651 -0.6653
   13PEO   H0D8 8640   5.634   3.625   2.586  0.7248 -0.8632  1.7903
   13PEO   H0D9 8641   5.789   3.690   2.650 -0.5391 -1.3069 -0.2438
   13PEO   O0DA 8642   5.673   3.827   2.543 -0.0602  0.0641  0.5743
   13PEO   H0DB 8643   5.882   3.866   2.561 -1.1207 -2.0808  1.4596
   13PEO   H0DC 8644   5.784   3.925   2.697 -1.4832 -2.7157  1.0622
   13PEO   C0DD 8645   5.786   3.912   2.588 -0.1157  0.7774  0.5336
   13PEO   C0DE 8646   5.770   4.055   2.525 -0.5547 -0.2514 -0.0241
   13PEO   H0DF 8647   5.662   4.071   2.526 -0.7095 -1.2189  0.7869
   13PEO   H0E0 8648   5.808   4.128   2.598 -0.8939 -0.9006  0.8226
   13PEO   O0E1 8649   5.826   4.057   2.397  0.0319  0.2859 -0.4170
   13PEO   H0E2 8650   5.645   4.027   2.285  0.5101  3.5629  1.2774
   13PEO   H0E3 8651   5.740   3.880   2.323 -1.0641  0.7321 -0.1055
   13PEO   C0E4 8652   5.746   3.987   2.299 -0.2638  0.5752 -0.6209
   13PEO   C0E5 8653   5.802   4.003   2.155  0.1583 -0.2226  0.1391
   13PEO   H0E6 8654   5.715   4.002   2.088  1.6175  1.4271 -1.9457
   13PEO   H0E7 8655   5.857   4.097   2.139 -3.3877  1.7462 -1.6688
   13PEO   O0E8 8656   5.879   3.890   2.107  0.0138  0.2082 -0.5705
   13PEO   H0E9 8657   5.984   3.997   1.965  0.1487 -0.1027  0.1841
   13PEO   H0EA 8658   5.834   3.916   1.912 -0.0444  1.7102  0.6960
   13PEO   C0EB 8659   5.925   3.905   1.972  0.1804 -0.1325  0.0727
   13PEO   C0EC 8660   6.001   3.785   1.931 -0.0099  0.1284  0.5343
   13PEO   H0ED 8661   6.085   3.816   1.867  0.1634  1.3855  1.3211
   13PEO   H0EE 8662   6.046   3.727   2.013  0.5357 -2.3381 -1.4019
   13PEO   O0EF 8663   5.915   3.685   1.865 -0.0102 -0.1355 -0.0614
   13PEO   H0F0 8664   6.029   3.524   1.908  0.9020  0.3561 -0.4325
   13PEO   H0F1 8665   6.064   3.584   1.739 -0.1979 -1.5767 -0.4763
   13PEO   C0F2 8666   5.989   3.570   1.817 -0.1772 -0.0015 -0.1416
   13PEO   C0F3 8667   5.885   3.473   1.763  0.1111  0.8061 -0.6877
   13PEO   H0F4 8668   5.929   3.374   1.743  1.1354  0.3938  2.8277
   13PEO   H0F5 8669   5.801   3.466   1.834  0.2980  0.5601 -0.4874
   13PEO   O0F6 8670   5.831   3.525   1.637  0.1653  0.1432  0.3482
   13PEO   H0F7 8671   5.973   3.413   1.531  2.5901  1.6180  2.0813
   13PEO   H0F8 8672   5.992   3.580   1.521 -0.9522  1.4590  0.3902
   13PEO   C0F9 8673   5.912   3.504   1.523  0.3308  0.0598  0.0571
   13PEO   C0FA 8674   5.832   3.517   1.394  0.1868  0.0617 -1.0546
   13PEO   H0FB 8675   5.780   3.613   1.387  0.9292  0.4575 -1.3118
   13PEO   H0FC 8676   5.909   3.514   1.315 -0.0360 -0.8112 -1.2483
   13PEO   O0FD 8677   5.735   3.398   1.382 -0.0677 -0.0162 -0.3417
   13PEO   H0FE 8678   5.868   3.261   1.471 -0.4582  2.1303  1.1409
   13PEO   H0FF 8679   5.868   3.275   1.291  1.5844  0.6999  1.3683
   13PEO   C100 8680   5.806   3.273   1.381  0.1408  0.0619  0.3876
   13PEO   C101 8681   5.708   3.157   1.364 -0.1194 -0.1517 -0.5209
   13PEO   H102 8682   5.770   3.067   1.378  1.3674  0.9312  0.1208
   13PEO   H103 8683   5.624   3.166   1.434 -0.3830  0.7357 -0.9405
   13PEO   O104 8684   5.657   3.155   1.236 -0.0080  0.1939  0.5223
   13PEO   H105 8685   5.509   3.023   1.304  0.6178 -0.4139  0.4287
   13PEO   H106 8686   5.630   2.955   1.193  0.3566  0.2039  1.5781
   13PEO   C107 8687   5.565   3.042   1.211 -0.3492  0.0548 -0.0645
   13PEO   C108 8688   5.464   3.089   1.098  0.0028 -0.2683  0.5206
   13PEO   H109 8689   5.371   3.032   1.112  0.1232  0.1219  3.5729
   13PEO   H10A 8690   5.434   3.193   1.118  2.5836  0.0383  3.6166
   13PEO   O10B 8691   5.532   3.067   0.972 -0.7231 -0.0509  0.0036
   13PEO   H10C 8692   5.424   3.183   0.843 -1.1226  0.3336 -0.0960
   13PEO   H10D 8693   5.375   3.010   0.835 -0.7238  2.1749 -0.4930
   13PEO   C10E 8694   5.460   3.079   0.850  0.3972  0.8142 -0.4146
   13PEO   C10F 8695   5.550   3.055   0.724 -0.5298 -0.0219  0.8380
   13PEO   H110 8696   5.513   3.108   0.635 -1.2988 -2.6801 -0.5272
   13PEO   H111 8697   5.644   3.105   0.750  0.3030  0.0319 -1.9215
   13PEO   O112 8698   5.564   2.907   0.703  0.0989 -0.3602 -0.0630
   13PEO   H113 8699   5.723   2.878   0.564  0.7729 -5.9669  0.6939
   13PEO   H114 8700   5.565   2.929   0.497  2.0831  1.0793 -0.0921
   13PEO   C115 8701   5.614   2.871   0.577  0.0546 -0.3894  0.1744
   13PEO   C116 8702   5.577   2.724   0.557  0.4696  0.0734  0.1131
   13PEO   H117 8703   5.649   2.692   0.480  0.3899  1.6033 -0.6322
   13PEO   H118 8704   5.601   2.678   0.655 -0.8980 -0.4702  0.2167
   13PEO   O119 8705   5.435   2.704   0.518  0.5616  0.1960  0.4080
   13PEO   H11A 8706   5.383   2.532   0.630  0.0810 -1.0686  0.2208
   13PEO   H11B 8707   5.455   2.502   0.466 -2.1123 -0.7934 -1.1373
   13PEO   C11C 8708   5.393   2.570   0.527  0.1659 -0.1395  0.5640
   13PEO   C11D 8709   5.254   2.569   0.459 -0.2805  0.2249 -0.8176
   13PEO   H11E 8710   5.228   2.462   0.449 -0.9090  0.6070 -4.2308
   13PEO   H11F 8711   5.177   2.614   0.523  0.2539 -0.0978  0.0729
   13PEO   O120 8712   5.260   2.619   0.328 -0.0783 -0.5337 -0.2927
   13PEO   H121 8713   5.066   2.678   0.306  2.7431  2.1310  2.1258
   13PEO   H122 8714   5.095   2.501   0.270  0.7427 -0.8763  0.3367
   13PEO   C123 8715   5.131   2.604   0.256 -0.8128 -0.2632  0.6315
   13PEO   C124 8716   5.134   2.629   0.102  0.2743 -0.1484  0.5012
   13PEO   H125 8717   5.033   2.630   0.058  0.6568 -1.5963 -0.4648
   13PEO   H126 8718   5.166   2.734   0.095 -2.1906  0.6683  0.2674
   13PEO   O127 8719   5.217   2.532   0.039 -0.4018 -0.1428  0.8161
   13PEO   H128 8720   5.086   2.430  -0.095 -0.3183  2.1377 -0.0829
   13PEO   H129 8721   5.055   2.408   0.076  2.1002  0.8125  1.9927
   13PEO   C12A 8722   5.136   2.413   0.001 -0.0552 -0.3881 -0.5916
   13PEO   C12B 8723   5.213   2.281   0.001  0.6311  0.4682  0.5578
   13PEO   H12C 8724   5.148   2.194  -0.015  0.7433  0.5646 -0.4943
   13PEO   H12D 8725   5.289   2.278  -0.079 -0.8842 -1.7123 -0.9279
   13PEO   O12E 8726   5.278   2.277   0.124 -0.7803 -0.4697 -0.0458
   13PEO   H12F 8727   5.399   2.121   0.063 -1.3592  0.1757 -1.0637
   13PEO   H130 8728   5.284   2.089   0.188 -1.9387  2.5046 -1.4865
   13PEO   C131 8729   5.357   2.164   0.155  0.9704  0.5073 -0.1016
   13PEO   C132 8730   5.457   2.195   0.271  0.2085 -0.1871 -0.2783
   13PEO   H133 8731   5.562   2.184   0.242  0.0557 -1.2230 -0.4724
   13PEO   H134 8732   5.444   2.304   0.281  1.7677 -0.0771  0.9008
   13PEO   O135 8733   5.429   2.119   0.391 -0.1058 -0.0333 -0.0596
   13PEO   H136 8734   5.551   2.231   0.537  0.6425 -1.1930  2.2074
   13PEO   H137 8735   5.635   2.109   0.443  0.2173  0.8177  1.1315
   13PEO   C138 8736   5.538   2.134   0.487 -0.7899  0.3647 -0.7185
   13PEO   C139 8737   5.511   2.035   0.600 -0.5198  1.6560  0.5458
   13PEO   H13A 8738   5.568   2.048   0.693  2.6180 -0.6458 -0.8992
   13PEO   H13B 8739   5.406   2.035   0.633  0.3399 -1.5940  3.9638
   13PEO   O13C 8740   5.527   1.906   0.548  0.1408 -0.0154 -0.2892
   13PEO   H13D 8741   5.523   1.700   0.574 -2.3520 -1.5151  2.6282
   13PEO   H13E 8742   5.453   1.791   0.707  1.1238 -1.1755  0.8351
   13PEO   C13F 8743   5.536   1.790   0.635  0.2117  0.2714 -0.3035
   13PEO   C140 8744   5.673   1.792   0.703  1.0486 -0.4328  0.5401
   13PEO   H141 8745   5.694   1.895   0.735 -0.2015 -0.3688  1.2081
   13PEO   H142 8746   5.674   1.736   0.798  3.1389  0.4074  1.0568
   13PEO   O143 8747   5.770   1.749   0.612  0.3020  0.1980  0.1591
   13PEO   H144 8748   5.942   1.799   0.719  0.5870 -2.1401  0.5618
   13PEO   H145 8749   5.919   1.900   0.572  2.2144 -1.6951 -2.2869
   13PEO   C146 8750   5.903   1.801   0.616 -0.4086 -0.0407  0.9227
   13PEO   C147 8751   6.002   1.708   0.542  0.5269 -0.2811  0.2579
   13PEO   H148 8752   6.096   1.764   0.524 -0.5558  1.2387 -0.9087
   13PEO   H149 8753   6.013   1.612   0.594  0.6428 -0.0345  0.6899
   13PEO   O14A 8754   5.949   1.683   0.408 -0.4227  0.5778  1.3572
   13PEO   H14B 8755   6.032   1.485   0.358 -0.9318 -1.5995 -2.1624
   13PEO   H14C 8756   6.133   1.630   0.332 -0.9396  2.3006  1.3460
   13PEO   C14D 8757   6.030   1.590   0.326  0.1323 -0.6557  0.5423
   13PEO   C14E 8758   5.974   1.597   0.180  0.1502 -0.2219  0.2874
   13PEO   H14F 8759   5.983   1.494   0.143 -0.2203 -0.5313  1.0376
   13PEO   H150 8760   5.869   1.631   0.185 -0.1817 -0.5708 -2.6436
   13PEO   O151 8761   6.045   1.704   0.115  0.0157  0.1260 -0.0851
   13PEO   H152 8762   5.886   1.755  -0.013 -0.9336 -2.3527 -2.5051
   13PEO   H153 8763   6.012   1.656  -0.090  2.3101  0.3527  1.1690
   13PEO   C154 8764   5.994   1.734  -0.015 -0.3278 -0.4266  1.4436
   13PEO   C155 8765   6.046   1.864  -0.071  0.5081  0.2409  0.2907
   13PEO   H156 8766   5.980   1.897  -0.152  0.4002 -0.6254  0.0228
   13PEO   H157 8767   6.049   1.938   0.011  1.4477  0.0274  0.4604
   13PEO   O158 8768   6.173   1.839  -0.134 -0.6256  0.4314 -0.5458
   13PEO   H159 8769   6.266   1.761   0.034 -0.5152  1.6476  0.5809
   13PEO   H15A 8770   6.292   1.939  -0.002 -2.0606  0.7869 -1.9032
   13PEO   C15B 8771   6.284   1.837  -0.043  0.1347  0.1194 -0.8440
   13PEO   C15C 8772   6.407   1.796  -0.122 -0.0666  0.2396 -0.5166
   13PEO   H15D 8773   6.475   1.745  -0.052 -0.3036  0.8237  0.1532
   13PEO   H15E 8774   6.381   1.726  -0.202  1.0451  0.7417 -1.3394
   13PEO   O15F 8775   6.469   1.905  -0.193 -0.1467  0.2204  0.2847
   13PEO   H160 8776   6.595   1.918  -0.362 -0.0065  1.5925  0.3858
   13PEO   H161 8777   6.606   1.759  -0.280 -4.5232 -0.3916 -1.4881
   13PEO   C162 8778   6.592   1.867  -0.264  0.3952  0.2871 -0.2510
   13PEO   C163 8779   6.710   1.917  -0.178 -0.3381 -0.3383  0.5223
   13PEO   H164 8780   6.701   1.870  -0.079  2.5128 -1.9292  0.1447
   13PEO   H165 8781   6.804   1.876  -0.220 -1.0288  0.8244 -2.3937
   13PEO   O166 8782   6.735   2.060  -0.177 -0.0201  0.2259  0.1852
   13PEO   H167 8783   6.761   2.074  -0.397  0.0285 -1.7204  0.3895
   13PEO   H168 8784   6.904   2.028  -0.309 -0.1690 -0.5347 -1.9328
   13PEO   C169 8785   6.813   2.088  -0.301 -0.0571 -0.5738  0.2836
   13PEO   C16A 8786   6.867   2.231  -0.305  0.0148 -0.0864  0.8708
   13PEO   H16B 8787   6.954   2.233  -0.373 -1.4390 -2.2474 -1.2193
   13PEO   H16C 8788   6.785   2.294  -0.341  0.7873  1.4299  1.6782
   13PEO   O16D 8789   6.903   2.283  -0.177  0.3629  0.2689 -0.1203
   13PEO   H16E 8790   6.934   2.464  -0.282 -0.7505  0.1760  0.8827
   13PEO   H16F 8791   7.085   2.386  -0.235 -0.3334 -0.5256 -1.4967
   13PEO   C170 8792   6.982   2.405  -0.202  0.4079  0.4479  0.4070
   13PEO   C171 8793   6.985   2.495  -0.070  0.2937 -0.5036  0.1871
   13PEO   H172 8794   6.966   2.429   0.016  2.7689  0.7373  1.7875
   13PEO   H173 8795   7.079   2.550  -0.061 -0.8708  1.8452 -0.9840
   13PEO   O174 8796   6.866   2.584  -0.079  0.1540  0.9003  0.4679
   13PEO   H175 8797   6.883   2.684  -0.259  2.1405  0.9359  1.1319
   13PEO   H176 8798   6.982   2.747  -0.128  0.7835 -0.1063 -2.1657
   13PEO   C177 8799   6.883   2.706  -0.151 -0.4978  0.8049  1.2094
   13PEO   C178 8800   6.758   2.784  -0.105 -0.4112 -0.3310  0.3330
   13PEO   H179 8801   6.743   2.794   0.004  1.1253  2.9183  0.3717
   13PEO   H17A 8802   6.777   2.888  -0.136  1.5261 -0.9723 -0.7426
   13PEO   O17B 8803   6.639   2.738  -0.184 -0.2023  0.0905  0.0022
   13PEO   H17C 8804   6.726   2.706  -0.377  0.2248 -1.5790  1.9706
   13PEO   H17D 8805   6.664   2.868  -0.357  1.7916 -0.3014 -0.8337
   13PEO   C17E 8806   6.644   2.763  -0.329  0.3554  0.2120  0.2050
   13PEO   C17F 8807   6.506   2.734  -0.391 -0.8475 -0.0185 -0.4834
   13PEO   H180 8808   6.516   2.741  -0.500 -1.9876  2.8872 -0.4855
   13PEO   H181 8809   6.480   2.629  -0.369  2.0997 -0.6346  0.5700
   13PEO   O182 8810   6.420   2.837  -0.352 -0.0996  0.2543  0.2197
   13PEO   H183 8811   6.428   2.845  -0.137  1.1354 -1.4584 -0.3386
   13PEO   H184 8812   6.319   2.729  -0.208  1.7350 -0.2371 -0.0596
   13PEO   C185 8813   6.360   2.830  -0.222  0.2457  0.4053 -0.0166
   13PEO   C186 8814   6.246   2.930  -0.236 -0.0255 -0.4094 -0.6140
   13PEO   H187 8815   6.192   2.904  -0.328  0.7593 -1.1189 -0.8832
   13PEO   H188 8816   6.166   2.926  -0.159 -0.9248 -3.4678 -1.5615
   13PEO   O189 8817   6.295   3.067  -0.246 -0.1443 -0.1461 -0.6381
   13PEO   H18A 8818   6.439   3.070  -0.092  0.7494  0.2048  0.1558
   13PEO   H18B 8819   6.265   3.103  -0.055  1.3195 -3.4186  1.7919
   13PEO   C18C 8820   6.347   3.119  -0.127  0.0930 -0.4790  0.8944
   13PEO   C18D 8821   6.378   3.262  -0.164 -0.2779 -0.3375  0.1898
   13PEO   H18E 8822   6.322   3.307  -0.247 -0.6914  0.7011  1.0099
   13PEO   H18F 8823   6.339   3.317  -0.076 -1.6603 -0.9262 -0.0202
   13PEO   O190 8824   6.520   3.272  -0.183 -0.3989 -0.5143 -0.3970
   13PEO   H191 8825   6.494   3.244  -0.390 -0.5769 -1.2540  0.5760
   13PEO   H192 8826   6.551   3.104  -0.317  2.0067 -0.6044 -0.0279
   13PEO   C193 8827   6.560   3.213  -0.308 -0.3158 -0.4093  0.6935
   13PEO   C194 8828   6.712   3.253  -0.338  0.6814  0.1209  0.4844
   13PEO   H195 8829   6.764   3.264  -0.242 -0.0443  1.7324  0.7075
   13PEO   H196 8830   6.756   3.164  -0.386 -1.9636 -0.9572 -0.1305
   13PEO   O197 8831   6.716   3.375  -0.412  0.2142  0.1655 -0.2506
   13PEO   H198 8832   6.797   3.567  -0.359  0.7453 -0.8066 -1.2479
   13PEO   H199 8833   6.711   3.470  -0.230  2.1120  0.9274 -0.0501
   13PEO   C19A 8834   6.714   3.498  -0.336  0.3181 -0.0256 -0.3892
   13PEO   C19B 8835   6.582   3.560  -0.380  0.9844 -0.7962 -0.4737
   13PEO   H19C 8836   6.595   3.658  -0.428  0.5317 -0.0850  0.8024
   13PEO   H19D 8837   6.523   3.498  -0.450  1.7129 -0.9940 -0.9147
   13PEO   O19E 8838   6.493   3.575  -0.263  0.2415 -0.1604  0.0179
   13PEO   H19F 8839   6.295   3.598  -0.359  0.7740  1.7432 -0.5522
   13PEO   H1A0 8840   6.372   3.740  -0.328 -0.5914  0.3964 -0.7790
   13PEO   C1A1 8841   6.361   3.640  -0.282  0.6839  0.6537  0.1510
   13PEO   C1A2 8842   6.297   3.633  -0.144 -0.1935 -0.1940  0.5096
   13PEO   H1A3 8843   6.187   3.638  -0.153 -0.1019  1.0818 -0.1434
   13PEO   H1A4 8844   6.318   3.536  -0.095 -1.8276 -0.2851  1.0971
   13PEO   O1A5 8845   6.348   3.746  -0.069  0.1593  0.4925  0.0876
   13PEO   H1A6 8846   6.311   3.931   0.028 -0.0518  1.1069 -0.6644
   13PEO   H1A7 8847   6.185   3.808   0.045  2.1203 -1.2165  2.4089
   13PEO   C1A8 8848   6.253   3.855  -0.027 -0.7459  0.6097  0.6810
   13PEO   C1A9 8849   6.199   3.912  -0.154  0.8507 -0.0257  0.0618
   13PEO   H1AA 8850   6.162   3.824  -0.209 -0.1785  0.7917 -0.6045
   13PEO   H1AB 8851   6.115   3.983  -0.143  2.1119  1.3766  0.9791
   13PEO   O1AC 8852   6.297   3.973  -0.234 -0.9437  0.6649  0.4579
   13PEO   H1AD 8853   6.211   4.113  -0.346  3.2429  1.5887 -0.3482
   13PEO   H1AE 8854   6.203   3.950  -0.421 -1.6674  0.5368  0.4596
   13PEO   C1AF 8855   6.265   4.018  -0.361  0.1112 -0.3567 -0.2675
   13PEO   C1B0 8856   6.396   4.050  -0.433 -0.3088 -1.1027  0.4985
   13PEO   H1B1 8857   6.464   3.964  -0.431  2.1670  0.7827  2.1753
   13PEO   H1B2 8858   6.369   4.077  -0.537 -1.0233 -0.5674  0.8159
   13PEO   O1B3 8859   6.462   4.154  -0.363 -0.0992  0.1714 -0.9904
   13PEO   H1B4 8860   6.338   4.309  -0.422  0.4115 -0.9861  1.0209
   13PEO   H1B5 8861   6.497   4.305  -0.502 -1.0777  2.1454 -0.5428
   13PEO   C1B6 8862   6.445   4.284  -0.408  0.5868 -0.9487 -0.1505
   13PEO   C1B7 8863   6.495   4.387  -0.298  0.3289  0.1065 -0.4579
   13PEO   H1B8 8864   6.539   4.344  -0.206 -1.7571  2.0297  1.5689
   13PEO   H1B9 8865   6.575   4.446  -0.344 -0.6916  1.9679  0.0657
   13PEO   O1BA 8866   6.392   4.478  -0.257 -0.2882 -0.5070 -0.6090
   13PEO   H1BB 8867   6.213   4.368  -0.224  0.4522 -0.2888 -1.2121
   13PEO   H1BC 8868   6.242   4.514  -0.116 -1.5628  0.5905 -2.3240
   13PEO   C1BD 8869   6.287   4.429  -0.170 -0.3474 -0.2148 -0.1754
   13PEO   C1BE 8870   6.338   4.339  -0.046 -0.4656  0.1903 -0.0476
   13PEO   H1BF 8871   6.259   4.310   0.025  1.7610 -2.3588  1.6037
   13PEO   H1C0 8872   6.377   4.246  -0.087 -3.7988 -1.1943 -0.4056
   13PEO   O1C1 8873   6.415   4.432   0.039 -0.1113  0.2370 -0.0550
   13PEO   H1C2 8874   6.592   4.340   0.074 -0.0559  0.6148  0.2912
   13PEO   H1C3 8875   6.463   4.244   0.143  0.3419 -0.4485  0.0359
   13PEO   C1C4 8876   6.495   4.348   0.126 -0.2964 -0.2520 -0.0092
   13PEO   C1C5 8877   6.523   4.431   0.257 -0.0104 -0.1064  0.8239
   13PEO   H1C6 8878   6.602   4.393   0.323 -0.0667  2.3185  2.3644
   13PEO   H1C7 8879   6.564   4.527   0.223  1.4291 -0.3801  1.7014
   13PEO   O1C8 8880   6.406   4.472   0.326 -0.3205  0.6900 -0.0618
   13PEO   H1C9 8881   6.419   4.308   0.445 -0.3187 -1.1311  0.2146
   13PEO   H1CA 8882   6.286   4.303   0.317  0.3227 -0.5509 -0.3605
   13PEO   C1CB 8883   6.341   4.364   0.391 -0.3369 -0.9207  0.4574
   13PEO   C1CC 8884   6.234   4.417   0.482  0.2385  0.1409 -0.4905
   13PEO   H1CD 8885   6.167   4.492   0.436 -0.4790 -0.7292 -0.9027
   13PEO   H1CE 8886   6.171   4.339   0.528  1.2040 -0.6882 -0.5457
   13PEO   O1CF 8887   6.300   4.492   0.584  0.1243  0.1379 -0.4180
   13PEO   H1D0 8888   6.174   4.488   0.738  1.3032  0.8981  2.3030
   13PEO   H1D1 8889   6.133   4.616   0.609 -0.4305  0.7526 -0.0022
   13PEO   C1D2 8890   6.210   4.564   0.667 -0.7820 -0.8734 -0.9248
   13PEO   C1D3 8891   6.279   4.671   0.765 -0.4209  0.0418 -0.3102
   13PEO   H1D4 8892   6.197   4.694   0.835  1.8413 -0.9415  2.8678
   13PEO   H1D5 8893   6.370   4.628   0.809 -0.4221 -1.6939 -1.8982
   13PEO   O1D6 8894   6.317   4.794   0.696 -0.3894  0.5998  1.1480
   13PEO   H1D7 8895   6.404   4.839   0.508 -1.8785 -0.1268 -1.3300
   13PEO   H1D8 8896   6.437   4.675   0.572  0.1028 -0.1605  1.4682
   13PEO   C1D9 8897   6.426   4.781   0.599  0.1046  0.6362 -1.2846
   13PEO   C1DA 8898   6.560   4.825   0.660  0.3677  0.2607 -0.1465
   13PEO   H1DB 8899   6.594   4.747   0.731  0.6239  1.8963  1.6246
   13PEO   H1DC 8900   6.640   4.820   0.585  0.9829 -1.2946  0.5687
   13PEO   O1DD 8901   6.559   4.962   0.702  0.0518 -0.1611 -0.2433
   13PEO   H1DE 8902   6.754   5.018   0.643  1.2678 -2.2886  2.2028
   13PEO   H1DF 8903   6.734   4.959   0.802  3.0735  1.7472 -0.0009
   13PEO   C1E0 8904   6.682   5.019   0.726 -0.7082 -0.4683  0.5723
   13PEO   C1E1 8905   6.676   5.157   0.793 -0.0541  0.5869  0.7796
   13PEO   H1E2 8906   6.585   5.150   0.855 -0.2557 -1.6839  0.3242
   13PEO   H1E3 8907   6.774   5.174   0.840 -0.2963  0.9625  1.1540
   13PEO   O1E4 8908   6.650   5.243   0.684 -0.3627 -0.2542 -0.5274
   13PEO   H1E5 8909   6.702   5.440   0.619  0.7050  0.0319  0.1054
   13PEO   H1E6 8910   6.801   5.380   0.747 -0.5630  0.8405  0.4530
   13PEO   C1E7 8911   6.697   5.382   0.712 -0.5344  0.4939  0.3470
   13PEO   C1E8 8912   6.626   5.450   0.830 -0.0293 -0.1225 -0.2852
   13PEO   H1E9 8913   6.649   5.408   0.929  0.6003  2.1818  0.6193
   13PEO   H1EA 8914   6.645   5.558   0.843  0.8576 -0.3715  0.5967
   13PEO   O1EB 8915   6.485   5.416   0.803  0.6328  0.4016 -0.2658
   13PEO   H1EC 8916   6.425   5.362   0.994 -0.2078 -0.5311 -0.9731
   13PEO   H1ED 8917   6.297   5.409   0.871 -2.0043  2.1854  1.3277
   13PEO   C1EE 8918   6.395   5.431   0.914 -0.8061  0.1702 -0.1607
   13PEO   C1EF 8919   6.402   5.573   0.979  0.2691  0.2044  0.3086
   13PEO   H1F0 8920   6.340   5.579   1.070 -1.0408 -0.4984 -0.5123
   13PEO   H1F1 8921   6.506   5.577   1.014  0.2770  0.1366  0.2942
   13PEO   O1F2 8922   6.369   5.678   0.884  0.1552  0.4510  0.1252
   13PEO   H1F3 8923   6.163   5.667   0.890  0.6289  3.4440  1.3675
   13PEO   H1F4 8924   6.242   5.587   0.751 -1.0101 -0.0745 -0.0839
   13PEO   C1F5 8925   6.245   5.675   0.817 -0.2139 -0.0198 -0.1845
   13PEO   C1F6 8926   6.223   5.801   0.731  0.3042 -0.1431  0.5568
   13PEO   H1F7 8927   6.306   5.815   0.659 -0.8821  0.8224 -0.6979
   13PEO   H1F8 8928   6.137   5.783   0.664 -0.1603 -0.4360  1.2223
   13PEO   O1F9 8929   6.196   5.921   0.809 -0.4036 -0.6744  0.5573
   13PEO   H1FA 8930   6.366   6.025   0.744  0.7874 -2.6885 -0.4471
   13PEO   H1FB 8931   6.375   5.933   0.907 -0.5935 -2.6497 -1.1148
   13PEO   C1FC 8932   6.316   5.994   0.837  0.1363 -0.6439 -0.0675
   13PEO   C1FD 8933   6.293   6.131   0.921 -0.4500  0.0029  0.7979
   13PEO   H1FE 8934   6.193   6.128   0.967 -1.3948  0.6372 -1.1149
   13PEO   H1FF 8935   6.370   6.133   0.999  0.3908 -0.5510  0.0042
   13PEO   O200 8936   6.309   6.251   0.838  0.5728 -0.0022  0.2351
   13PEO   H201 8937   6.103   6.311   0.805 -2.5974 -3.6153 -1.4379
   13PEO   H202 8938   6.171   6.182   0.697 -1.4595  1.8185 -2.7708
   13PEO   C203 8939   6.193   6.274   0.753 -0.0453 -0.0408  0.0279
   13PEO   C204 8940   6.236   6.373   0.645 -0.1933  0.2969  0.4053
   13PEO   H205 8941   6.153   6.420   0.589  0.3967  2.0499  0.9213
   13PEO   H206 8942   6.281   6.463   0.688 -0.8897  1.7083 -1.6168
   13PEO   O207 8943   6.327   6.315   0.549 -0.0504 -0.7384 -0.1119
   13PEO   H208 8944   6.376   6.482   0.450  0.3834 -1.2862  4.2698
   13PEO   H209 8945   6.246   6.388   0.377 -0.6649  0.1100  0.0124
   13PEO   C20A 8946   6.340   6.380   0.434 -0.6517 -0.4349 -0.0839
   13PEO   C20B 8947   6.451   6.301   0.357 -0.4643 -0.1008 -0.7878
   13PEO   H20C 8948   6.533   6.263   0.418 -3.2119 -1.4118  2.4222
   13PEO   H20D 8949   6.408   6.216   0.301 -0.6249 -0.2453 -0.4478
   13PEO   O20E 8950   6.513   6.397   0.264 -0.0195  0.2834 -0.3497
   13PEO   H20F 8951   6.574   6.251   0.121  2.2429 -0.3544 -1.9252
   13PEO   H210 8952   6.688   6.274   0.242  0.7108  0.2699 -1.0324
   13PEO   C211 8953   6.613   6.331   0.187 -0.8531 -0.4789  0.2492
   13PEO   C212 8954   6.684   6.424   0.084  0.2821 -0.6340  1.1370
   13PEO   H213 8955   6.719   6.379  -0.010 -0.9106 -0.3467  0.5290
   13PEO   H214 8956   6.606   6.489   0.044 -0.1225 -2.7986 -1.9291
   13PEO   O215 8957   6.794   6.498   0.141  0.2123  0.0997  0.0145
   13PEO   H216 8958   6.946   6.396   0.039  1.4526 -4.7657  1.4121
   13PEO   H217 8959   6.890   6.323   0.181 -0.6447  0.4946  0.8708
   13PEO   C218 8960   6.913   6.423   0.140  0.5231 -0.0658  0.0756
   13PEO   C219 8961   7.021   6.503   0.211 -0.3100  0.0842 -0.6992
   13PEO   H21A 8962   6.997   6.528   0.316 -1.5394  2.5526 -1.4957
   13PEO   H21B 8963   7.120   6.455   0.219 -1.8420 -3.0857  1.7784
   13PEO   O21C 8964   7.032   6.628   0.136 -0.2262  0.8328 -0.4152
   13PEO   H21D 8965   7.056   6.729   0.316  2.2179 -1.5148  0.8740
   13PEO   H21E 8966   7.030   6.826   0.175 -2.5722 -0.8773  1.7708
   13PEO   C21F 8967   7.080   6.734   0.209 -0.6382 -0.4722  0.2020
   13PEO   C220 8968   7.232   6.745   0.187 -0.1534 -0.4173  1.1432
   13PEO   H221 8969   7.245   6.764   0.080  1.1437 -0.6245  1.2572
   13PEO   H222 8970   7.258   6.826   0.256 -0.9312 -2.1503  3.6528
   13PEO   O223 8971   7.307   6.625   0.211 -1.0905 -0.3030 -0.1364
   13PEO   H224 8972   7.488   6.720   0.269 -0.4187  1.9844 -2.4187
   13PEO   H225 8973   7.468   6.677   0.097 -0.0312  0.0203 -0.8487
   13PEO   C226 8974   7.450   6.643   0.200  0.5762 -0.0722 -0.7704
   13PEO   C227 8975   7.530   6.515   0.232  1.0928 -0.7139 -0.3111
   13PEO   H228 8976   7.624   6.540   0.284  0.5214 -0.2418  0.5093
   13PEO   H229 8977   7.472   6.445   0.295  2.0736  0.4756  2.0514
   13PEO   O22A 8978   7.560   6.454   0.105  0.4558 -0.7954 -0.8108
   13PEO   H22B 8979   7.416   6.479  -0.010  0.2972 -0.2074  1.0240
   13PEO   H22C 8980   7.386   6.334   0.079 -0.0977 -1.1034 -2.8397
   13PEO   C22D 8981   7.465   6.386   0.022  1.3741 -0.0101  0.0204
   13PEO   C22E 8982   7.534   6.318  -0.099 -0.3131  0.4304  0.0175
   13PEO   H22F 8983   7.631   6.281  -0.064  0.3886  2.8868  0.8838
   13PEO   H230 8984   7.478   6.228  -0.128  0.2504 -0.8483  2.6336
   13PEO   O231 8985   7.555   6.409  -0.206 -0.1733 -0.2255  0.2117
   13PEO   H232 8986   7.630   6.254  -0.310 -0.4094 -0.6846  1.1585
   13PEO   H233 8987   7.728   6.415  -0.291 -1.1661  2.8949 -0.6994
   13PEO   C234 8988   7.633   6.364  -0.313  0.3011 -0.7168  0.6260
   13PEO   C235 8989   7.568   6.419  -0.437 -0.4747  0.8224 -0.1494
   13PEO   H236 8990   7.629   6.392  -0.525 -0.4950  0.2682  0.0045
   13PEO   H237 8991   7.467   6.379  -0.457 -0.1574 -0.4278  0.6582
   13PEO   O238 8992   7.558   6.566  -0.419  0.3430 -0.4920  0.5302
   13PEO   H239 8993   7.537   6.570  -0.626 -0.3102 -0.1104  0.1778
   13PEO   H23A 8994   7.669   6.676  -0.560  0.9382 -1.6677  2.2515
   13PEO   C23B 8995   7.567   6.638  -0.544  0.2380 -0.6312  0.4218
   13PEO   C23C 8996   7.465   6.756  -0.540  0.7258  0.3024  0.4731
   13PEO   H23D 8997   7.489   6.821  -0.625 -2.2028 -0.9914 -1.4941
   13PEO   H23E 8998   7.359   6.727  -0.546  0.4040  1.1416  1.7827
   13PEO   O23F 8999   7.493   6.835  -0.415 -0.1036  0.2695  0.0518
   13PEO   H240 9000   7.361   6.706  -0.318  0.0601  0.1839 -0.7312
   13PEO   H241 9001   7.308   6.875  -0.328 -1.8228 -2.1204 -2.4067
   13PEO   C242 9002   7.393   6.811  -0.305 -0.3981  0.2889 -0.4144
   13PEO   C243 9003   7.448   6.855  -0.162  0.5065  0.4989 -0.3889
   13PEO   H244 9004   7.419   6.784  -0.083  1.5673  0.0029 -0.4299
   13PEO   H245 9005   7.556   6.874  -0.160  0.3530  1.3791 -0.3376
   13PEO   O246 9006   7.381   6.983  -0.122 -0.2281 -0.2682  0.1530
   13PEO   H247 9007   7.451   7.068  -0.309 -1.2826  0.7114 -0.5243
   13PEO   H248 9008   7.479   7.164  -0.167 -0.0168  1.1259 -0.4952
   13PEO   C249 9009   7.408   7.091  -0.210 -0.0415  0.8482  0.0079
   13PEO   C24A 9010   7.274   7.171  -0.222  0.1424 -0.3420 -0.0423
   13PEO   H24B 9011   7.229   7.173  -0.122 -0.6031 -0.3789 -0.3756
   13PEO   H24C 9012   7.277   7.277  -0.249 -1.6898 -0.8367 -2.5733
   13PEO   O24D 9013   7.196   7.113  -0.314 -0.1341  0.6203  0.2545
   13PEO   H24E 9014   7.139   6.954  -0.190 -0.4020  1.3722  1.7572
   13PEO   H24F 9015   7.062   6.958  -0.349 -1.8859  1.1054  0.2401
   13PEO   C250 9016   7.100   7.022  -0.267 -0.5085 -0.0472  0.5271
   13PEO   C251 9017   6.965   7.086  -0.225  0.0384  0.5297  0.1767
   13PEO   H252 9018   6.897   7.016  -0.174 -0.9461  2.5929  1.8780
   13PEO   H253 9019   6.981   7.169  -0.154  0.5985  3.3515 -2.9688
   13PEO   O254 9020   6.908   7.151  -0.340 -0.0513  0.7816  0.5612
   13PEO   H255 9021   6.762   7.288  -0.374  1.1875  0.7765  1.6367
   13PEO   H256 9022   6.725   7.195  -0.238 -3.1644  1.2209 -1.8369
   13PEO   C257 9023   6.772   7.185  -0.337  0.3688 -0.0079 -0.2091
   13PEO   C258 9024   6.701   7.069  -0.403  0.0635 -0.3169  0.4533
   13PEO   H259 9025   6.594   7.092  -0.408  0.4131  1.1687 -1.7115
   13PEO   H25A 9026   6.745   7.048  -0.502 -0.3792 -0.7914  0.3520
   13PEO   O25B 9027   6.723   6.945  -0.330 -0.0585 -0.6450  0.0398
   13PEO   H25C 9028   6.780   6.818  -0.491 -0.0195 -0.6669  0.4209
   13PEO   H25D 9029   6.612   6.803  -0.453 -0.3005 -3.8782 -0.2811
   13PEO   C25E 9030   6.710   6.817  -0.406 -0.7771  0.4633 -0.1751
   13PEO   C25F 9031   6.752   6.691  -0.324 -0.3164 -1.1833  1.0327
   13PEO   H260 9032   6.692   6.689  -0.233 -1.1219  0.7676  0.6124
   13PEO   H261 9033   6.747   6.599  -0.383 -0.7428  0.8736 -2.4526
   13PEO   O262 9034   6.891   6.708  -0.300 -0.1871 -0.0218 -0.0093
   13PEO   H263 9035   6.846   6.549  -0.168 -0.3472 -0.5909  0.8099
   13PEO   H264 9036   6.922   6.688  -0.092  2.1728 -2.0889  1.3853
   13PEO   C265 9037   6.923   6.626  -0.183  0.1920 -1.1526  0.6710
   13PEO   C266 9038   7.068   6.584  -0.198  0.0787  0.8376 -0.1628
   13PEO   H267 9039   7.127   6.659  -0.253  2.5469 -0.1285  1.0292
   13PEO   H268 9040   7.103   6.579  -0.094 -0.0054  1.7636 -0.0775
   13PEO   O269 9041   7.064   6.453  -0.261  0.2620 -0.4771 -0.2489
   13PEO   H26A 9042   7.182   6.338  -0.127 -0.1667  1.6691  0.2975
   13PEO   H26B 9043   7.269   6.404  -0.272  0.0900  1.1260  2.5295
   13PEO   C26C 9044   7.175   6.363  -0.234 -0.3820 -0.6062 -0.2610
   13PEO   C26D 9045   7.157   6.230  -0.308  0.4527 -0.5086  0.0215
   13PEO   H26E 9046   7.237   6.155  -0.297 -0.7467 -1.5155  2.6942
   13PEO   H26F 9047   7.067   6.182  -0.268 -0.9997  2.6109  0.7348
   13PEO   O270 9048   7.134   6.247  -0.454  0.2761 -0.7403  0.2663
   13PEO   H271 9049   7.035   6.057  -0.424  0.8283 -1.0050 -0.7776
   13PEO   H272 9050   7.140   6.063  -0.560  1.2900  2.4833 -1.5145
   13PEO   C273 9051   7.073   6.126  -0.500 -0.2160 -0.0117 -0.4170
   13PEO   C274 9052   6.954   6.164  -0.590 -0.2427 -0.1809  0.7886
   13PEO   H275 9053   6.975   6.248  -0.657  1.9965 -0.1521  1.4624
   13PEO   H276 9054   6.934   6.084  -0.662 -1.7150 -0.1199  1.0888
   13PEO   O277 9055   6.827   6.183  -0.524 -0.0242 -0.2631 -0.1647
   13PEO   H278 9056   6.876   6.382  -0.438 -2.2397  1.6812  1.1848
   13PEO   H279 9057   6.883   6.241  -0.331 -2.3463 -3.4937 -0.5759
   13PEO   C27A 9058   6.828   6.285  -0.416 -0.5049  0.4923  0.0800
   13PEO   C27B 9059   6.680   6.310  -0.369 -0.4791  1.2265  0.4127
   13PEO   H27C 9060   6.635   6.210  -0.357 -0.3117  1.0454 -0.4262
   13PEO   H27D 9061   6.685   6.347  -0.266 -1.8331  2.4792  0.0620
   13PEO   O27E 9062   6.607   6.387  -0.464 -0.0790  0.2728  0.0102
   13PEO   H27F 9063   6.540   6.507  -0.326 -1.2348  2.2322 -0.3346
   13PEO   H280 9064   6.411   6.399  -0.377 -0.3356  0.2358 -0.5642
   13PEO   C281 9065   6.497   6.457  -0.414  0.1937 -0.0458  0.1887
   13PEO   C282 9066   6.458   6.570  -0.520  0.2084 -0.5942  0.2505
   13PEO   H283 9067   6.384   6.639  -0.475  0.1419  0.6958 -1.7282
   13PEO   H284 9068   6.537   6.646  -0.529 -0.9298  0.6195  0.1776
   13PEO   O285 9069   6.421   6.524  -0.655 -0.2239 -0.2231 -0.1212
   13PEO   H286 9070   6.220   6.588  -0.655  0.9187  1.9551 -0.2831
   13PEO   H287 9071   6.247   6.426  -0.585  0.7472 -0.3790 -1.1880
   13PEO   C288 9072   6.280   6.496  -0.663 -0.2670  1.1668 -0.2908
   13PEO   C289 9073   6.242   6.428  -0.794  0.6908  0.5417 -0.7373
   13PEO   H28A 9074   6.133   6.430  -0.798  0.6396  1.0300  0.4710
   13PEO   H28B 9075   6.285   6.481  -0.881 -0.9226 -1.9955 -3.2247
   13PEO   O28C 9076   6.284   6.289  -0.795  0.0415 -1.3429 -0.5716
   13PEO   H28D 9077   6.102   6.196  -0.808  1.7440 -2.1512 -2.1772
   13PEO   H28E 9078   6.160   6.217  -0.634  2.6539 -2.6487  1.3768
   13PEO   C28F 9079   6.187   6.193  -0.738  0.0825 -0.2052  0.0274
   13PEO   C290 9080   6.249   6.051  -0.747  0.7471  0.5141  0.6327
   13PEO   H291 9081   6.358   6.065  -0.738  0.9858 -0.2419 -0.7605
   13PEO   H292 9082   6.218   5.991  -0.660  1.3534 -0.9645 -0.1167
   13PEO   O293 9083   6.206   5.981  -0.870 -0.2166 -0.4657 -0.0657
   13PEO   H294 9084   6.204   5.791  -0.958  0.2462 -0.1061 -0.4689
   13PEO   H295 9085   6.275   5.800  -0.793 -2.4342 -0.3692 -0.0718
   13PEO   C296 9086   6.267   5.851  -0.890  0.4333 -0.3714 -0.4058
   13PEO   C297 9087   6.408   5.869  -0.950 -0.0832 -0.4287  0.4468
   13PEO   H298 9088   6.452   5.970  -0.946 -0.1978 -0.4022  1.2329
   13PEO   H299 9089   6.467   5.813  -0.875  1.4475 -1.7587 -1.6303
   13PEO   O29A 9090   6.405   5.828  -1.083 -0.2698 -0.8533 -0.4196
   13PEO   H29B 9091   6.599   5.755  -1.119  1.0312  0.4338 -1.5332
   13PEO   H29C 9092   6.595   5.926  -1.099  0.9110 -2.1428  1.6519
   13PEO   C29D 9093   6.536   5.843  -1.139 -0.4499 -0.3210 -0.3604
   13PEO   C29E 9094   6.531   5.865  -1.291 -0.5267 -0.1853  1.0016
   13PEO   H29F 9095   6.444   5.927  -1.319 -1.1055 -0.1084  2.8340
   13PEO   H2A0 9096   6.627   5.914  -1.314 -0.4340 -1.1596 -0.9880
   13PEO   O2A1 9097   6.516   5.737  -1.356 -1.0716 -0.2845  0.3709
   13PEO   H2A2 9098   6.645   5.782  -1.519  0.9214  0.2749  0.0143
   13PEO   H2A3 9099   6.472   5.813  -1.548  0.7765  0.9621  1.9265
   13PEO   C2A4 9100   6.544   5.742  -1.505  1.0148  0.0669  0.1049
   13PEO   C2A5 9101   6.499   5.610  -1.578  0.2749 -0.7167  0.1858
   13PEO   H2A6 9102   6.391   5.593  -1.572 -0.1621  1.3852 -0.7457
   13PEO   H2A7 9103   6.527   5.637  -1.681 -2.1434 -0.0663 -0.3615
   13PEO   O2A8 9104   6.583   5.501  -1.538  0.1563 -0.7128 -0.1419
   13PEO   H2A9 9105   6.439   5.375  -1.458 -0.2274 -0.3178 -1.5274
   13PEO   H2AA 9106   6.592   5.292  -1.510  0.0826 -0.9694 -3.4667
   13PEO   C2AB 9107   6.522   5.375  -1.530  0.6584  0.3653 -0.5458
   13PEO   C2AC 9108   6.456   5.327  -1.664  0.2354 -0.5205  0.0869
   13PEO   H2AD 9109   6.516   5.371  -1.746  1.4641 -1.4817  0.4414
   13PEO   H2AE 9110   6.462   5.217  -1.665  0.0108 -0.5463  0.9606
   13PEO   O2AF 9111   6.313   5.369  -1.666 -0.1318  0.3544 -0.1739
   13PEO   H2B0 9112   6.291   5.324  -1.871 -0.7783 -1.9630  1.3005
   13PEO   H2B1 9113   6.291   5.497  -1.833  2.0111 -0.4636  0.2139
   13PEO   C2B2 9114   6.256   5.399  -1.798 -0.2940  0.0554 -0.4340
   13PEO   C2B3 9115   6.102   5.405  -1.795  0.4262  0.6600  0.0590
   13PEO   H2B4 9116   6.075   5.477  -1.717  0.5656  0.2573  0.4874
   13PEO   H2B5 9117   6.059   5.434  -1.892  2.2551 -1.5252 -1.5357
   13PEO   O2B6 9118   6.046   5.270  -1.767 -0.0475 -0.0646  0.5237
   13PEO   H2B7 9119   5.843   5.274  -1.838  1.6919  0.2594 -0.8938
   13PEO   H2B8 9120   5.865   5.346  -1.677  2.1321 -1.5533  3.5375
   13PEO   C2B9 9121   5.904   5.270  -1.747 -0.2668 -0.1504  0.4524
   13PEO   C2BA 9122   5.872   5.138  -1.683  0.7899  0.8177 -0.5678
   13PEO   H2BB 9123   5.908   5.119  -1.581 -0.5803  0.3441 -0.1464
   13PEO   H2BC 9124   5.763   5.149  -1.667  1.1206  1.0850  1.9898
   13PEO   O2BD 9125   5.897   5.032  -1.779  0.5572 -0.0704  0.1388
   13PEO   H2BE 9126   5.812   5.006  -1.817  0.2766 -3.4418  2.5644
   14PEO   H001 9127   5.419   1.114   1.144  0.6986 -0.9186  0.3926
   14PEO   H002 9128   5.427   1.162   0.973  0.5143 -0.8880 -0.4547
   14PEO   H003 9129   5.270   1.127   1.036  0.2636 -1.0865 -2.3954
   14PEO   C004 9130   5.375   1.096   1.045  0.4368  0.0155  0.3309
   14PEO   C005 9131   5.386   0.955   0.986 -0.0440 -0.1296  0.4769
   14PEO   H006 9132   5.342   0.880   1.053  1.6459  0.2908  2.1631
   14PEO   H007 9133   5.321   0.947   0.898 -0.5887  1.1445  0.7426
   14PEO   O008 9134   5.525   0.927   0.941  0.4576 -0.7414 -0.0594
   14PEO   H009 9135   5.571   0.774   1.078  3.5165 -1.3268  2.0856
   14PEO   H00A 9136   5.581   0.943   1.142 -3.8641  0.3906 -1.3596
   14PEO   C00B 9137   5.601   0.877   1.056 -0.2711 -0.4676 -0.0350
   14PEO   C00C 9138   5.747   0.873   1.020 -0.1512 -0.3124 -0.2419
   14PEO   H00D 9139   5.787   0.787   1.075  2.6831  0.1836 -1.3929
   14PEO   H00E 9140   5.752   0.855   0.911  1.4337 -4.7233  0.3673
   14PEO   O00F 9141   5.817   0.991   1.065  1.1929  0.2528 -0.0856
   14PEO   H010 9142   5.995   0.922   0.973  0.6775  0.9422  0.3022
   14PEO   H011 9143   5.989   0.891   1.140 -1.6533 -2.3640 -1.0307
   14PEO   C012 9144   5.961   0.968   1.067  0.4019  0.1345  0.6064
   14PEO   C013 9145   6.020   1.109   1.094 -0.0590  0.4118 -0.2575
   14PEO   H014 9146   5.941   1.186   1.094  0.3075  1.0526 -4.4453
   14PEO   H015 9147   6.068   1.100   1.192  1.3605 -0.3215 -0.9961
   14PEO   O016 9148   6.111   1.135   0.988 -0.9613  0.1497  0.0797
   14PEO   H017 9149   6.259   1.213   1.084  0.6084 -1.2485 -2.4827
   14PEO   H018 9150   6.134   1.335   1.022 -0.4075  0.6954 -0.6263
   14PEO   C019 9151   6.195   1.246   1.000 -1.1245  0.2134 -0.6857
   14PEO   C01A 9152   6.282   1.269   0.879 -0.2988 -0.0295 -0.4841
   14PEO   H01B 9153   6.364   1.332   0.917  0.8122 -1.0276 -1.1323
   14PEO   H01C 9154   6.324   1.171   0.853  2.1414  1.2411 -1.7398
   14PEO   O01D 9155   6.211   1.343   0.778  0.4306  0.3044 -0.0944
   14PEO   H01E 9156   6.237   1.414   0.587 -0.9210 -0.5057  0.4648
   14PEO   H01F 9157   6.337   1.268   0.632 -0.0856  0.0002  0.1400
   14PEO   C020 9158   6.298   1.366   0.664  0.1962  0.1518  0.0269
   14PEO   C021 9159   6.413   1.463   0.701  0.2337 -0.1521  0.2560
   14PEO   H022 9160   6.479   1.417   0.777 -0.1352 -2.1503 -0.5727
   14PEO   H023 9161   6.460   1.488   0.605  0.0241 -1.0402 -0.0794
   14PEO   O024 9162   6.373   1.591   0.740  0.6701  0.4789  0.2057
   14PEO   H025 9163   6.436   1.800   0.775  1.5959  0.4263 -0.0385
   14PEO   H026 9164   6.519   1.716   0.645  1.9904 -1.6398  0.4066
   14PEO   C027 9165   6.471   1.700   0.743  0.0122 -0.0874 -0.2493
   14PEO   C028 9166   6.594   1.672   0.837  0.0663 -0.6657 -0.0075
   14PEO   H029 9167   6.673   1.604   0.801  1.2166  1.1237 -1.0829
   14PEO   H02A 9168   6.654   1.765   0.837 -0.7944 -0.0314 -2.3059
   14PEO   O02B 9169   6.554   1.650   0.971 -0.5068 -0.1011 -0.1894
   14PEO   H02C 9170   6.663   1.609   1.149 -0.6199 -2.0012 -0.1306
   14PEO   H02D 9171   6.761   1.646   1.013 -0.4933 -1.2418 -1.7269
   14PEO   C02E 9172   6.669   1.592   1.041 -0.8465 -0.0462 -0.4883
   14PEO   C02F 9173   6.678   1.440   1.023  0.3734  0.2783  0.1983
   14PEO   H030 9174   6.659   1.405   0.920  0.0427 -2.0847  1.0113
   14PEO   H031 9175   6.779   1.403   1.045 -0.4623 -3.2474 -1.1186
   14PEO   O032 9176   6.573   1.381   1.106 -0.3159 -0.3550 -0.4956
   14PEO   H033 9177   6.655   1.194   1.057 -0.3454  0.6688  0.2413
   14PEO   H034 9178   6.478   1.206   1.064 -0.6842 -1.4102  2.3088
   14PEO   C035 9179   6.571   1.240   1.112 -0.3180  0.5913  0.3478
   14PEO   C036 9180   6.578   1.185   1.252  0.0253  0.0365  0.2574
   14PEO   H037 9181   6.500   1.232   1.315 -0.4336 -1.6821  1.0232
   14PEO   H038 9182   6.575   1.075   1.251  1.3830 -0.0413  1.3898
   14PEO   O039 9183   6.699   1.224   1.307 -0.5428 -0.2955  0.2054
   14PEO   H03A 9184   6.663   1.183   1.507  0.5986 -0.4526  0.6342
   14PEO   H03B 9185   6.832   1.211   1.462 -0.9190  2.7438 -0.1768
   14PEO   C03C 9186   6.738   1.165   1.429  0.1673  0.2187  0.0540
   14PEO   C03D 9187   6.757   1.014   1.435 -0.2260  0.3040 -0.3021
   14PEO   H03E 9188   6.804   0.988   1.531 -0.2899  0.5244 -0.2104
   14PEO   H03F 9189   6.659   0.963   1.438 -0.0198 -0.0853 -0.0920
   14PEO   O040 9190   6.853   0.968   1.340  0.6057 -0.6363  0.5153
   14PEO   H041 9191   6.805   0.765   1.398 -0.2194  0.6679 -0.1823
   14PEO   H042 9192   6.966   0.795   1.415 -0.1690  1.0741  0.9313
   14PEO   C043 9193   6.883   0.825   1.349  0.1879  0.4238  0.1628
   14PEO   C044 9194   6.893   0.766   1.209 -0.6342  0.1378 -0.3153
   14PEO   H045 9195   6.955   0.828   1.143  2.9329 -2.5535  0.2414
   14PEO   H046 9196   6.920   0.660   1.220 -1.5657  0.0177  1.1476
   14PEO   O047 9197   6.762   0.765   1.160 -0.6255 -0.2184 -0.0663
   14PEO   H048 9198   6.812   0.695   0.969  0.2063  0.4476 -1.1231
   14PEO   H049 9199   6.812   0.867   0.970  1.1238 -1.7654 -1.6584
   14PEO   C04A 9200   6.760   0.781   1.015  0.0804 -0.2733  0.1416
   14PEO   C04B 9201   6.618   0.778   0.945  0.2057 -0.0550  0.7527
   14PEO   H04C 9202   6.635   0.776   0.836 -0.2536 -0.4951  0.6864
   14PEO   H04D 9203   6.570   0.680   0.959  1.3319 -0.5931  0.9620
   14PEO   O04E 9204   6.537   0.894   0.990  0.0377 -0.1971  0.4952
   14PEO   H04F 9205   6.352   0.974   1.001  0.0162 -0.2909  0.9433
   14PEO   H050 9206   6.356   0.797   0.994  1.5743 -1.2070 -1.1655
   14PEO   C051 9207   6.397   0.888   0.949 -1.2377  0.2130 -1.0775
   14PEO   C052 9208   6.388   0.902   0.796 -0.4161 -0.5956 -0.3166
   14PEO   H053 9209   6.424   0.807   0.754  1.0575 -0.4629  0.6031
   14PEO   H054 9210   6.293   0.937   0.752  0.4990  2.3454 -0.1495
   14PEO   O055 9211   6.485   1.009   0.773  1.0113  0.0917 -0.5296
   14PEO   H056 9212   6.573   1.129   0.626 -0.2736  0.9193 -0.8822
   14PEO   H057 9213   6.438   1.035   0.564  0.9888  2.0970 -0.4777
   14PEO   C058 9214   6.524   1.031   0.634  0.1937  0.7680  0.4616
   14PEO   C059 9215   6.633   0.924   0.600  0.5766 -0.1349 -0.0293
   14PEO   H05A 9216   6.695   0.961   0.517 -1.7178 -1.9328 -2.7446
   14PEO   H05B 9217   6.701   0.919   0.686  0.0889  0.9677  0.4342
   14PEO   O05C 9218   6.569   0.803   0.555  0.7098  0.0846 -0.2077
   14PEO   H05D 9219   6.707   0.655   0.635  0.2862  0.2190 -0.6962
   14PEO   H05E 9220   6.731   0.701   0.461 -1.3190 -1.5451 -1.2376
   14PEO   C05F 9221   6.657   0.684   0.541 -0.6616  0.3883 -0.1600
   14PEO   C060 9222   6.559   0.571   0.485  0.0129  0.4807  0.2685
   14PEO   H061 9223   6.513   0.608   0.392 -2.8698 -0.4424  1.2128
   14PEO   H062 9224   6.610   0.475   0.470 -0.1781  0.6643 -1.8490
   14PEO   O063 9225   6.459   0.547   0.585  0.6808 -0.3975  0.9033
   14PEO   H064 9226   6.549   0.552   0.773  0.6621 -0.7966  0.2082
   14PEO   H065 9227   6.530   0.386   0.707 -0.6722  0.0092 -1.3871
   14PEO   C066 9228   6.487   0.487   0.710  0.0692  0.3124 -0.3785
   14PEO   C067 9229   6.351   0.445   0.783 -0.1845 -0.3040  0.1168
   14PEO   H068 9230   6.298   0.400   0.698 -0.9196  0.7233  0.0185
   14PEO   H069 9231   6.370   0.364   0.855  0.1136  0.5073  0.9629
   14PEO   O06A 9232   6.289   0.556   0.840 -0.0281 -0.3561  0.8735
   14PEO   H06B 9233   6.115   0.525   0.724 -0.8711  1.0699 -1.5836
   14PEO   H06C 9234   6.216   0.651   0.653 -2.6648  4.0599  0.0649
   14PEO   C06D 9235   6.184   0.607   0.749  0.1873 -0.0847 -0.5873
   14PEO   C06E 9236   6.093   0.706   0.822  0.0205  0.9688  0.5040
   14PEO   H06F 9237   5.997   0.674   0.867  0.2851  0.4007  0.6702
   14PEO   H070 9238   6.157   0.752   0.899  0.4630 -0.5872  1.1228
   14PEO   O071 9239   6.061   0.811   0.734 -0.2144 -0.2523  0.7049
   14PEO   H072 9240   5.886   0.767   0.642  0.2594  1.0441  3.1514
   14PEO   H073 9241   6.021   0.698   0.552 -1.9683 -0.8560  0.7948
   14PEO   C074 9242   5.990   0.786   0.610 -0.2707 -0.0425  0.5353
   14PEO   C075 9243   5.965   0.912   0.524 -0.2170  0.3373 -0.0503
   14PEO   H076 9244   6.054   0.974   0.507  0.3679 -0.4491  0.0427
   14PEO   H077 9245   5.922   0.882   0.428 -5.5551  0.6642  1.8802
   14PEO   O078 9246   5.869   0.995   0.593 -0.5680  0.0804 -0.2535
   14PEO   H079 9247   6.017   1.133   0.666 -1.1523  1.2791 -0.8447
   14PEO   H07A 9248   5.951   1.041   0.791  0.3523 -1.4642 -1.1496
   14PEO   C07B 9249   5.922   1.085   0.694 -0.5537  0.5538 -0.0136
   14PEO   C07C 9250   5.823   1.202   0.719 -0.4401 -0.6526  0.5165
   14PEO   H07D 9251   5.726   1.170   0.759  0.0451 -1.4122  1.1032
   14PEO   H07E 9252   5.860   1.277   0.791  1.0972  0.1349 -1.0046
   14PEO   O07F 9253   5.812   1.276   0.594  0.0118  0.0733 -0.0265
   14PEO   H080 9254   5.867   1.473   0.639 -0.7747  0.7754  0.7445
   14PEO   H081 9255   5.697   1.447   0.668 -0.2814  1.5135 -0.8586
   14PEO   C082 9256   5.780   1.416   0.603 -0.1504  0.3776 -0.1691
   14PEO   C083 9257   5.735   1.460   0.459  0.2359  0.5762  0.6351
   14PEO   H084 9258   5.728   1.570   0.451 -0.6968  0.5541  0.9773
   14PEO   H085 9259   5.811   1.432   0.385 -0.4324  0.2518  0.0618
   14PEO   O086 9260   5.610   1.400   0.425 -0.2455 -0.1285  0.1042
   14PEO   H087 9261   5.573   1.483   0.232 -1.7796  0.3757 -0.1796
   14PEO   H088 9262   5.505   1.571   0.362 -0.9883 -0.3324  1.3674
   14PEO   C089 9263   5.521   1.468   0.328 -0.5486  0.0212  0.4569
   14PEO   C08A 9264   5.375   1.414   0.315 -0.2403  0.7657 -0.2971
   14PEO   H08B 9265   5.321   1.418   0.411 -1.5222 -0.5650 -0.9466
   14PEO   H08C 9266   5.314   1.487   0.260 -4.6230  1.9996  5.2029
   14PEO   O08D 9267   5.366   1.279   0.266 -0.5889  0.2531  0.4380
   14PEO   H08E 9268   5.379   1.325   0.059  0.2125  0.7441  0.3411
   14PEO   H08F 9269   5.214   1.308   0.117  0.2749  0.1639 -1.6515
   14PEO   C090 9270   5.316   1.268   0.129  0.0690 -0.0171 -0.3866
   14PEO   C091 9271   5.312   1.117   0.085  0.0443  0.8640  0.5665
   14PEO   H092 9272   5.275   1.054   0.168 -0.2234  2.5695  1.7836
   14PEO   H093 9273   5.251   1.110  -0.006 -1.7269  0.0957  1.7669
   14PEO   O094 9274   5.451   1.086   0.055 -0.2050 -0.4822 -0.0204
   14PEO   H095 9275   5.477   1.177  -0.131 -2.4009  0.1260  0.3269
   14PEO   H096 9276   5.420   1.004  -0.131  0.8803 -1.2559 -0.3672
   14PEO   C097 9277   5.486   1.078  -0.084 -0.3688 -0.0844 -0.4022
   14PEO   C098 9278   5.643   1.036  -0.088 -0.0433  0.8428 -0.6890
   14PEO   H099 9279   5.666   0.984   0.006 -0.5060  0.4179 -0.7991
   14PEO   H09A 9280   5.665   0.965  -0.170 -0.0071 -0.5141  0.4582
   14PEO   O09B 9281   5.728   1.147  -0.097 -0.0748 -0.1290  0.0109
   14PEO   H09C 9282   5.615   1.285   0.016 -0.7617 -2.3610 -3.1142
   14PEO   H09D 9283   5.762   1.338  -0.040 -0.7907  1.0775  0.7297
   14PEO   C09E 9284   5.718   1.247   0.003  0.5433 -0.1377 -0.3670
   14PEO   C09F 9285   5.764   1.211   0.149  0.9063 -0.0631 -1.0432
   14PEO   H0A0 9286   5.736   1.291   0.220  2.9560 -1.0408  0.9839
   14PEO   H0A1 9287   5.721   1.115   0.179 -1.6289  1.7834  1.7990
   14PEO   O0A2 9288   5.904   1.201   0.153 -0.9018  0.2161  0.9957
   14PEO   H0A3 9289   5.894   1.055   0.288  1.5075  0.2807  4.2014
   14PEO   H0A4 9290   5.950   1.224   0.346  0.9441 -0.3886  1.0033
   14PEO   C0A5 9291   5.958   1.143   0.272  0.5870  0.3784  0.0974
   14PEO   C0A6 9292   6.100   1.085   0.249 -0.7486 -0.0307 -0.0279
   14PEO   H0A7 9293   6.161   1.135   0.172  2.2889 -1.6489  1.1571
   14PEO   H0A8 9294   6.153   1.105   0.343  0.7008 -0.8744 -0.6278
   14PEO   O0A9 9295   6.100   0.939   0.222 -0.1032 -0.3234  0.5912
   14PEO   H0AA 9296   5.929   0.909   0.115 -0.7743 -1.3029 -0.9411
   14PEO   H0AB 9297   6.050   0.774   0.117 -0.3899 -0.9349  1.1220
   14PEO   C0AC 9298   6.036   0.883   0.108 -0.6635 -1.0621 -0.2410
   14PEO   C0AD 9299   6.080   0.940  -0.032 -0.4275  0.4299  0.3199
   14PEO   H0AE 9300   5.983   0.943  -0.083 -0.1958  0.4072 -0.1303
   14PEO   H0AF 9301   6.118   1.043  -0.022  0.9945 -0.2097  2.0426
   14PEO   O0B0 9302   6.176   0.856  -0.086 -0.0332  0.5410  0.2223
   14PEO   H0B1 9303   6.282   0.831   0.101  1.3803  3.0722  1.0002
   14PEO   H0B2 9304   6.342   0.960   0.008  2.7058 -1.5004 -1.4020
   14PEO   C0B3 9305   6.301   0.858  -0.003 -0.1506 -0.5903 -0.4031
   14PEO   C0B4 9306   6.411   0.772  -0.072 -0.0098  0.1083 -0.0314
   14PEO   H0B5 9307   6.480   0.833  -0.132  1.5718  0.4822  2.0462
   14PEO   H0B6 9308   6.463   0.742   0.021  0.4693  2.2401  0.4472
   14PEO   O0B7 9309   6.350   0.661  -0.148  0.2682  0.0036 -0.1415
   14PEO   H0B8 9310   6.536   0.552  -0.206 -0.0554  1.5890  0.7718
   14PEO   H0B9 9311   6.480   0.683  -0.318 -0.1786 -0.9847 -0.8485
   14PEO   C0BA 9312   6.449   0.602  -0.250 -0.6793 -0.6618 -0.6846
   14PEO   C0BB 9313   6.383   0.496  -0.334  0.5075  0.9568  0.7845
   14PEO   H0BC 9314   6.288   0.543  -0.365 -1.7595 -1.7928  3.0284
   14PEO   H0BD 9315   6.437   0.475  -0.428  0.4520  1.0912  0.7215
   14PEO   O0BE 9316   6.354   0.375  -0.259 -0.7632 -0.3134  0.8857
   14PEO   H0BF 9317   6.396   0.198  -0.368 -0.3947 -0.7671 -1.5991
   14PEO   H0C0 9318   6.243   0.291  -0.409  2.8804 -0.8199 -2.0074
   14PEO   C0C1 9319   6.311   0.256  -0.329  0.5405 -0.5433  0.2204
   14PEO   C0C2 9320   6.237   0.168  -0.232  0.0541 -0.5645  0.2090
   14PEO   H0C3 9321   6.155   0.233  -0.201  0.0135  0.0150 -1.0636
   14PEO   H0C4 9322   6.193   0.083  -0.287  0.4452 -0.2879 -0.5549
   14PEO   O0C5 9323   6.304   0.123  -0.114  0.3508 -0.4861  0.0868
   14PEO   H0C6 9324   6.475   0.046  -0.193  0.8953  1.3654  0.9078
   14PEO   H0C7 9325   6.348  -0.066  -0.153 -1.7672  0.4469  0.5386
   14PEO   C0C8 9326   6.400   0.023  -0.116  0.1976 -0.3362 -0.2198
   14PEO   C0C9 9327   6.455   0.001   0.021 -0.1153  0.8407 -0.9141
   14PEO   H0CA 9328   6.377  -0.034   0.091  2.3263 -1.6893  0.7586
   14PEO   H0CB 9329   6.533  -0.077   0.016 -0.4263  0.5103 -0.7227
   14PEO   O0CC 9330   6.514   0.126   0.065 -0.4884  0.1490  0.7741
   14PEO   H0CD 9331   6.631   0.182  -0.105 -1.0606 -0.1225 -0.2232
   14PEO   H0CE 9332   6.731   0.117   0.021  0.5722  0.8771  0.3077
   14PEO   C0CF 9333   6.640   0.176   0.005  0.6573  0.8505 -0.2887
   14PEO   C0D0 9334   6.672   0.327   0.056  0.6268 -0.0939  0.2264
   14PEO   H0D1 9335   6.766   0.355   0.007  0.5379  0.8800  0.5886
   14PEO   H0D2 9336   6.599   0.395   0.009  0.0575 -2.0557 -1.9619
   14PEO   O0D3 9337   6.665   0.341   0.197 -0.5636  0.1329 -0.0381
   14PEO   H0D4 9338   6.774   0.160   0.240 -3.1221  0.2924 -0.6323
   14PEO   H0D5 9339   6.728   0.261   0.375  0.0898 -0.8748  0.2619
   14PEO   C0D6 9340   6.766   0.264   0.272 -0.1619  0.3515  0.1977
   14PEO   C0D7 9341   6.903   0.332   0.273  0.3214 -0.6551  0.5066
   14PEO   H0D8 9342   6.894   0.441   0.255 -1.7845 -0.5541  1.8362
   14PEO   H0D9 9343   6.947   0.317   0.373  0.3190  1.5847  0.9145
   14PEO   O0DA 9344   6.990   0.259   0.189  0.3853 -0.1744 -0.0447
   14PEO   H0DB 9345   7.072   0.437   0.108 -0.9902 -0.1401  2.3820
   14PEO   H0DC 9346   7.152   0.269   0.071 -1.9886 -0.3407 -1.1808
   14PEO   C0DD 9347   7.101   0.336   0.142  0.1904 -0.4447  0.5898
   14PEO   C0DE 9348   7.190   0.365   0.265 -0.2874  0.2651 -0.0641
   14PEO   H0DF 9349   7.210   0.269   0.315  1.2110  1.5430  1.9537
   14PEO   H0E0 9350   7.287   0.387   0.218  1.3427 -1.2634  2.3603
   14PEO   O0E1 9351   7.141   0.467   0.352  0.1335 -0.0139  0.3192
   14PEO   H0E2 9352   7.303   0.587   0.402 -2.0466  4.0353  3.8662
   14PEO   H0E3 9353   7.288   0.436   0.493  0.5190 -0.9237 -1.9454
   14PEO   C0E4 9354   7.231   0.518   0.448 -0.5967 -0.4648  0.1877
   14PEO   C0E5 9355   7.148   0.596   0.550  0.5056  0.1199 -0.6508
   14PEO   H0E6 9356   7.045   0.557   0.551 -0.2379  1.6636  3.4127
   14PEO   H0E7 9357   7.194   0.594   0.650  0.7145  2.2453 -0.6667
   14PEO   O0E8 9358   7.146   0.729   0.511 -0.2517  0.0699  0.2515
   14PEO   H0E9 9359   6.935   0.749   0.566 -0.0337 -0.2093 -0.1134
   14PEO   H0EA 9360   6.981   0.774   0.396  0.1277 -1.6311  0.4985
   14PEO   C0EB 9361   7.014   0.788   0.500  0.4709 -0.5791  0.2617
   14PEO   C0EC 9362   7.026   0.930   0.555  0.3062  0.7858  0.2824
   14PEO   H0ED 9363   7.133   0.954   0.544  0.1584  1.1576 -0.3520
   14PEO   H0EE 9364   6.977   0.984   0.473  2.2583 -0.7014 -1.9729
   14PEO   O0EF 9365   6.961   0.949   0.683 -0.3185 -0.0086  0.3066
   14PEO   H0F0 9366   6.853   1.117   0.638  0.8844 -1.4132 -0.3398
   14PEO   H0F1 9367   7.020   1.152   0.668  0.3923 -0.6384 -1.6217
   14PEO   C0F2 9368   6.936   1.092   0.705  0.6074  0.4208  0.7428
   14PEO   C0F3 9369   6.877   1.116   0.849 -0.2467 -0.1225  0.2918
   14PEO   H0F4 9370   6.850   1.221   0.865  1.4921  0.0555  2.6142
   14PEO   H0F5 9371   6.790   1.051   0.860  1.5635 -3.1301 -1.6229
   14PEO   O0F6 9372   6.975   1.091   0.945  0.1997  0.0693 -0.3688
   14PEO   H0F7 9373   6.856   1.056   1.121  0.7849  0.8727  1.2019
   14PEO   H0F8 9374   6.913   1.221   1.099  0.5761  0.0732  3.7364
   14PEO   C0F9 9375   6.939   1.115   1.081  0.1163  0.5454 -0.7444
   14PEO   C0FA 9376   7.076   1.100   1.159 -0.5001 -0.4939 -0.3337
   14PEO   H0FB 9377   7.048   1.109   1.265 -4.6426 -0.8573 -1.2349
   14PEO   H0FC 9378   7.117   1.000   1.138  2.6520  0.6145  0.0157
   14PEO   O0FD 9379   7.172   1.200   1.120 -0.2135  0.6143 -0.2436
   14PEO   H0FE 9380   7.340   1.078   1.164 -0.1284  0.8957 -1.4915
   14PEO   H0FF 9381   7.300   1.205   1.287  1.0099  2.1012 -0.1739
   14PEO   C100 9382   7.301   1.180   1.180 -0.0151  0.7146  0.1144
   14PEO   C101 9383   7.399   1.274   1.107  0.5291 -0.8040 -0.0235
   14PEO   H102 9384   7.354   1.374   1.118 -0.9707 -1.3695 -0.7779
   14PEO   H103 9385   7.493   1.261   1.162  0.6111 -0.8991 -0.1870
   14PEO   O104 9386   7.417   1.249   0.969 -0.2342  0.0233  0.3242
   14PEO   H105 9387   7.609   1.286   0.929  1.4548  0.9907 -0.7628
   14PEO   H106 9388   7.508   1.439   0.913 -0.4176  0.5595 -1.7476
   14PEO   C107 9389   7.515   1.331   0.894  0.6504  0.2131  0.3246
   14PEO   C108 9390   7.500   1.296   0.744  0.4073  0.7388 -0.2882
   14PEO   H109 9391   7.595   1.319   0.693  1.3276  0.1024  1.0991
   14PEO   H10A 9392   7.480   1.189   0.728 -0.0998  0.5668  1.3306
   14PEO   O10B 9393   7.396   1.374   0.676  0.1401 -0.5395  0.8583
   14PEO   H10C 9394   7.244   1.374   0.828 -1.9706 -0.9809  0.2222
   14PEO   H10D 9395   7.246   1.231   0.724 -0.4852 -0.3014  2.6133
   14PEO   C10E 9396   7.266   1.339   0.725  0.2351 -0.3530  0.4267
   14PEO   C10F 9397   7.184   1.403   0.620  0.6128  0.2728  0.7854
   14PEO   H110 9398   7.240   1.415   0.526 -1.7269  1.2064 -0.5778
   14PEO   H111 9399   7.102   1.332   0.604  1.1256 -0.3413  0.8072
   14PEO   O112 9400   7.145   1.537   0.670  0.3189 -0.0279  0.1980
   14PEO   H113 9401   7.024   1.547   0.500 -1.3197  0.1545  0.6616
   14PEO   H114 9402   7.153   1.674   0.520  1.1771 -0.9231  1.0594
   14PEO   C115 9403   7.076   1.614   0.570  0.2571 -0.5110  0.1653
   14PEO   C116 9404   6.967   1.705   0.639 -0.7053  0.0872  0.2673
   14PEO   H117 9405   6.886   1.724   0.567 -0.7820  0.3829  0.4315
   14PEO   H118 9406   6.910   1.649   0.715 -1.2957  1.8408  1.1806
   14PEO   O119 9407   7.020   1.828   0.692  0.7804  0.0429 -0.4386
   14PEO   H11A 9408   6.983   1.798   0.893 -0.9422 -2.0855 -1.4593
   14PEO   H11B 9409   6.847   1.871   0.805 -0.1364 -1.1684 -3.3830
   14PEO   C11C 9410   6.957   1.866   0.810 -0.1924 -0.7739 -0.6436
   14PEO   C11D 9411   7.016   2.004   0.845 -1.2466 -0.0144  0.4341
   14PEO   H11E 9412   6.986   2.036   0.946 -1.5211  1.0506  0.0343
   14PEO   H11F 9413   7.126   1.993   0.846 -1.3891 -1.5876  0.5110
   14PEO   O120 9414   6.977   2.107   0.751  0.0666  0.0317 -0.4179
   14PEO   H121 9415   7.132   2.236   0.790  0.4187  1.0136  1.1628
   14PEO   H122 9416   6.988   2.278   0.875  1.8751  2.8903  0.5436
   14PEO   C123 9417   7.022   2.238   0.778  0.4111  0.1775  1.0502
   14PEO   C124 9418   6.970   2.335   0.672  0.2238  0.1115 -0.3891
   14PEO   H125 9419   6.865   2.313   0.649 -0.0786  0.6481  0.4344
   14PEO   H126 9420   6.973   2.433   0.721  2.5085 -0.3137  0.4644
   14PEO   O127 9421   7.054   2.315   0.557 -0.3669 -0.4608 -0.6657
   14PEO   H128 9422   7.003   2.480   0.446 -1.1374  0.1932  1.1231
   14PEO   H129 9423   6.902   2.339   0.413  1.1635 -0.1257 -1.2204
   14PEO   C12A 9424   7.003   2.370   0.442  0.7393  0.1856 -0.0507
   14PEO   C12B 9425   7.086   2.328   0.315  0.5057 -0.3042  0.1364
   14PEO   H12C 9426   7.085   2.414   0.248  1.5599 -1.7931 -1.8990
   14PEO   H12D 9427   7.190   2.314   0.347  0.3915 -0.4562  0.4491
   14PEO   O12E 9428   7.013   2.207   0.265 -0.3660  0.0858  0.0277
   14PEO   H12F 9429   7.164   2.077   0.190 -0.7315 -1.3013 -1.7058
   14PEO   H130 9430   7.117   2.205   0.080  0.1814  1.6544  0.3497
   14PEO   C131 9431   7.077   2.135   0.154  0.0310  0.5151 -0.7670
   14PEO   C132 9432   6.975   2.031   0.102  0.3916  0.1588 -0.2673
   14PEO   H133 9433   6.878   2.038   0.154 -0.7114  0.4969 -2.2745
   14PEO   H134 9434   6.960   2.041  -0.007  3.6351  1.4664 -0.7164
   14PEO   O135 9435   7.018   1.897   0.129  0.1598  0.0961 -0.3541
   14PEO   H136 9436   7.000   1.793  -0.057 -2.8460  2.2185 -1.4241
   14PEO   H137 9437   6.846   1.802   0.031  0.1585 -0.4813 -3.8150
   14PEO   C138 9438   6.955   1.790   0.044 -0.1256 -0.3689 -0.1335
   14PEO   C139 9439   6.993   1.660   0.114  0.8447 -0.1352 -0.3421
   14PEO   H13A 9440   6.949   1.677   0.213 -0.5184 -1.6345 -0.6400
   14PEO   H13B 9441   6.949   1.566   0.078 -1.6961  0.5933  0.6319
   14PEO   O13C 9442   7.137   1.630   0.106  0.0453  0.0094  0.0168
   14PEO   H13D 9443   7.151   1.464   0.249 -0.9018  0.0715  0.9684
   14PEO   H13E 9444   7.197   1.614   0.322 -0.4138 -0.4273 -0.2992
   14PEO   C13F 9445   7.196   1.561   0.225  0.5148 -0.8233 -0.0957
   14PEO   C140 9446   7.345   1.524   0.198 -0.0101 -1.0005  0.1841
   14PEO   H141 9447   7.374   1.441   0.265 -0.1258 -2.5316 -1.5793
   14PEO   H142 9448   7.353   1.484   0.096  0.8813  0.1989 -0.2351
   14PEO   O143 9449   7.435   1.648   0.213 -0.0252 -0.1384 -0.2223
   14PEO   H144 9450   7.369   1.724   0.024  0.1904  0.3391 -0.5414
   14PEO   H145 9451   7.514   1.797   0.095 -0.8876  2.1524 -0.2745
   14PEO   C146 9452   7.413   1.759   0.118  0.1887 -0.9147 -0.0557
   14PEO   C147 9453   7.340   1.876   0.179 -0.0238  0.3069 -0.3718
   14PEO   H148 9454   7.278   1.917   0.097 -0.8335  1.3612  0.7427
   14PEO   H149 9455   7.297   1.847   0.276  0.6518  0.1573 -0.1118
   14PEO   O14A 9456   7.434   1.983   0.203 -0.3315  0.0902  0.1098
   14PEO   H14B 9457   7.611   1.887   0.261  2.9614  1.0121  2.8881
   14PEO   H14C 9458   7.497   1.941   0.387 -1.6514 -3.1588 -1.7931
   14PEO   C14D 9459   7.540   1.966   0.289  0.1925 -0.0665 -0.3297
   14PEO   C14E 9460   7.614   2.102   0.308  0.1151 -0.2345  0.4402
   14PEO   H14F 9461   7.543   2.186   0.313  1.3673  0.9634 -0.9705
   14PEO   H150 9462   7.671   2.101   0.402  0.2880  0.3146  0.3434
   14PEO   O151 9463   7.693   2.124   0.189 -0.6632  0.6438  0.3558
   14PEO   H152 9464   7.880   2.202   0.217 -0.9482 -3.0044  1.7908
   14PEO   H153 9465   7.757   2.316   0.253 -0.2785  0.0656  0.6004
   14PEO   C154 9466   7.780   2.235   0.183  0.5851  0.6083  0.2421
   14PEO   C155 9467   7.794   2.286   0.039 -0.1579 -0.4171  0.1269
   14PEO   H156 9468   7.885   2.345   0.054  0.8558 -1.9259  0.1277
   14PEO   H157 9469   7.804   2.206  -0.036 -2.0747  0.2682 -0.9387
   14PEO   O158 9470   7.684   2.379   0.004 -0.1761 -0.1021 -0.4495
   14PEO   H159 9471   7.567   2.212  -0.034 -0.6428 -0.0145  0.1306
   14PEO   H15A 9472   7.520   2.359  -0.131 -1.9444 -0.3854  0.3535
   14PEO   C15B 9473   7.555   2.321  -0.034 -0.4309  0.0091 -0.0104
   14PEO   C15C 9474   7.464   2.359   0.084 -0.0048  0.0769 -0.1524
   14PEO   H15D 9475   7.376   2.294   0.087 -0.5939  0.8824  0.5978
   14PEO   H15E 9476   7.525   2.350   0.175  0.6099 -0.4894 -0.6062
   14PEO   O15F 9477   7.425   2.494   0.054  0.5440 -0.2441 -0.3510
   14PEO   H160 9478   7.242   2.525   0.151 -0.0363  0.0343 -0.5370
   14PEO   H161 9479   7.328   2.665   0.102  0.2209  1.2590  1.9781
   14PEO   C162 9480   7.344   2.566   0.146 -0.0817  0.1949 -0.1672
   14PEO   C163 9481   7.412   2.567   0.286  0.4476 -0.5392 -0.0267
   14PEO   H164 9482   7.521   2.583   0.277  0.0939  2.5761  0.1638
   14PEO   H165 9483   7.365   2.648   0.344 -0.1509 -0.3513 -0.7638
   14PEO   O166 9484   7.388   2.449   0.361  0.6966 -0.2511  0.4202
   14PEO   H167 9485   7.568   2.438   0.446 -0.0885 -0.0474  0.0001
   14PEO   H168 9486   7.427   2.339   0.520 -0.5687  0.4437  0.9237
   14PEO   C169 9487   7.464   2.434   0.481  0.0751  0.0232  0.4961
   14PEO   C16A 9488   7.442   2.543   0.587 -0.4702 -0.2195 -0.1773
   14PEO   H16B 9489   7.334   2.566   0.588  0.0227  2.7204 -1.8227
   14PEO   H16C 9490   7.454   2.509   0.691 -0.3320  1.1344  0.2702
   14PEO   O16D 9491   7.523   2.661   0.553  0.0816  0.0339  0.1218
   14PEO   H16E 9492   7.572   2.715   0.755  1.4959  2.2664  0.2545
   14PEO   H16F 9493   7.428   2.792   0.700  0.1896 -0.9159  0.0911
   14PEO   C170 9494   7.527   2.758   0.665  0.3765  0.0213 -0.3154
   14PEO   C171 9495   7.586   2.891   0.629  1.0385  1.2707 -0.1960
   14PEO   H172 9496   7.581   2.953   0.720 -0.7182 -1.2446  1.5736
   14PEO   H173 9497   7.692   2.878   0.604  1.1712  1.8454  0.0352
   14PEO   O174 9498   7.514   2.944   0.518 -0.1389 -0.5557 -0.6198
   14PEO   H175 9499   7.647   3.102   0.469  1.4574 -0.1429  2.2931
   14PEO   H176 9500   7.495   3.153   0.559 -0.6093 -1.3357 -0.4109
   14PEO   C177 9501   7.539   3.086   0.484  1.1568 -0.6780 -0.0232
   14PEO   C178 9502   7.469   3.109   0.350 -0.9374 -0.1632 -0.5185
   14PEO   H179 9503   7.369   3.064   0.349 -0.7138 -0.7346  0.9243
   14PEO   H17A 9504   7.460   3.218   0.335  2.4100  0.5893  1.8570
   14PEO   O17B 9505   7.541   3.061   0.239 -0.0105 -0.1671  0.3238
   14PEO   H17C 9506   7.462   2.869   0.237  1.3440 -0.3595  2.0936
   14PEO   H17D 9507   7.634   2.893   0.296 -0.0244  0.8092 -0.0935
   14PEO   C17E 9508   7.557   2.922   0.222  0.7932 -0.0909 -1.3365
   14PEO   C17F 9509   7.608   2.892   0.084 -0.2081 -0.2913  0.0597
   14PEO   H180 9510   7.701   2.946   0.061 -1.8014  2.7850  0.3046
   14PEO   H181 9511   7.644   2.789   0.076  1.4362  0.1835  0.9089
   14PEO   O182 9512   7.508   2.929  -0.013 -0.1935  0.6801 -0.0629
   14PEO   H183 9513   7.480   2.745  -0.112  0.4737 -0.1520  0.9112
   14PEO   H184 9514   7.615   2.843  -0.170  0.6404  2.7811  2.1820
   14PEO   C185 9515   7.513   2.848  -0.130 -0.3835  0.0225  0.2578
   14PEO   C186 9516   7.422   2.908  -0.237  0.0828 -0.5720 -0.0226
   14PEO   H187 9517   7.403   2.837  -0.318 -2.3879  0.2445 -0.2423
   14PEO   H188 9518   7.325   2.932  -0.191 -0.8288  0.4974 -2.3554
   14PEO   O189 9519   7.471   3.030  -0.298  0.0032 -0.3939 -0.5056
   14PEO   H18A 9520   7.530   3.131  -0.124 -0.6601 -0.4536  0.5185
   14PEO   H18B 9521   7.362   3.139  -0.175 -0.1798 -0.4660 -0.2417
   14PEO   C18C 9522   7.465   3.137  -0.213 -0.0495 -0.0975  0.0903
   14PEO   C18D 9523   7.515   3.271  -0.281  0.5927  0.2615  0.4782
   14PEO   H18E 9524   7.579   3.325  -0.209 -2.0350  2.6195  1.2595
   14PEO   H18F 9525   7.570   3.230  -0.367 -1.3637 -0.8000 -0.3331
   14PEO   O190 9526   7.409   3.363  -0.329  0.3744 -0.2855  0.4769
   14PEO   H191 9527   7.528   3.430  -0.491 -0.1030 -4.9719  1.5803
   14PEO   H192 9528   7.540   3.520  -0.333  0.6465 -0.5100 -0.3418
   14PEO   C193 9529   7.473   3.469  -0.404  0.1286 -0.0679 -0.1831
   14PEO   C194 9530   7.368   3.568  -0.451 -0.2362  0.9945  0.4505
   14PEO   H195 9531   7.274   3.568  -0.395  0.4756  4.3428  1.8218
   14PEO   H196 9532   7.415   3.667  -0.444  2.3554 -0.1035 -0.0747
   14PEO   O197 9533   7.333   3.532  -0.587 -1.4431  0.5033 -0.4132
   14PEO   H198 9534   7.171   3.405  -0.536 -1.2138 -2.4132 -1.7461
   14PEO   H199 9535   7.313   3.318  -0.578  0.8181  1.0567  0.7942
   14PEO   C19A 9536   7.258   3.410  -0.603 -0.5592 -0.1177 -0.7821
   14PEO   C19B 9537   7.211   3.400  -0.749 -0.4755  0.5546  0.0902
   14PEO   H19C 9538   7.301   3.402  -0.812  1.0402 -1.7796  2.0015
   14PEO   H19D 9539   7.134   3.322  -0.756 -1.0239  0.8333  2.1294
   14PEO   O19E 9540   7.144   3.525  -0.780  0.1643 -0.0151 -0.3093
   14PEO   H19F 9541   7.008   3.517  -0.616  2.2069  2.7917 -0.5386
   14PEO   H1A0 9542   6.948   3.436  -0.767 -0.9451  1.1939 -2.7666
   14PEO   C1A1 9543   7.007   3.519  -0.726  0.3806 -0.6435 -0.7267
   14PEO   C1A2 9544   6.933   3.650  -0.774 -1.0622  0.0053 -0.0156
   14PEO   H1A3 9545   6.856   3.673  -0.699  0.7224  2.9920  1.0761
   14PEO   H1A4 9546   6.992   3.743  -0.765 -0.1439 -0.6557  0.9103
   14PEO   O1A5 9547   6.889   3.645  -0.914 -0.5808 -0.2010  0.0400
   14PEO   H1A6 9548   6.900   3.852  -0.950  1.5489 -1.5681 -0.3208
   14PEO   H1A7 9549   6.737   3.798  -0.895 -0.7665 -1.1832 -2.2089
   14PEO   C1A8 9550   6.825   3.772  -0.956  0.5674 -0.6413 -0.5917
   14PEO   C1A9 9551   6.773   3.763  -1.100  0.7069  1.0741 -0.4055
   14PEO   H1AA 9552   6.715   3.670  -1.111  0.7475  0.5138  3.0106
   14PEO   H1AB 9553   6.707   3.847  -1.122 -0.1156  0.7877  0.8544
   14PEO   O1AC 9554   6.877   3.764  -1.200 -0.6220  0.0794 -0.1608
   14PEO   H1AD 9555   6.760   3.857  -1.353  0.5181  0.8298 -1.0758
   14PEO   H1AE 9556   6.738   3.686  -1.335  1.0854 -1.2007  1.8959
   14PEO   C1AF 9557   6.816   3.764  -1.335 -0.5773  0.5561  1.2325
   14PEO   C1B0 9558   6.924   3.752  -1.446 -0.4059 -0.1440 -0.0651
   14PEO   H1B1 9559   7.025   3.734  -1.407  0.6304  0.4684 -2.3195
   14PEO   H1B2 9560   6.894   3.670  -1.513  1.2219 -1.2350  0.4624
   14PEO   O1B3 9561   6.927   3.876  -1.507  0.7046  0.1624  0.1079
   14PEO   H1B4 9562   6.885   3.806  -1.698  1.1741  1.0800 -3.0340
   14PEO   H1B5 9563   7.054   3.809  -1.658  2.1568  1.3904  4.4526
   14PEO   C1B6 9564   6.961   3.866  -1.645  0.1841 -0.5122  0.4877
   14PEO   C1B7 9565   6.931   3.997  -1.718  0.9693  0.2850  0.1997
   14PEO   H1B8 9566   6.885   3.988  -1.818  1.9823  0.1960 -0.2723
   14PEO   H1B9 9567   6.868   4.061  -1.654  1.7511  1.7930 -0.4887
   14PEO   O1BA 9568   7.070   4.048  -1.736  0.0064  0.1629 -0.2656
   14PEO   H1BB 9569   7.176   4.217  -1.795 -0.3054  0.3918  0.4155
   14PEO   H1BC 9570   7.003   4.230  -1.802  0.5986 -0.0342  1.7674
   14PEO   C1BD 9571   7.085   4.159  -1.819  0.1644 -0.1118 -0.1627
   14PEO   C1BE 9572   7.076   4.118  -1.968 -0.0523 -0.1066  0.6661
   14PEO   H1BF 9573   7.129   4.197  -2.024  0.7857 -1.0508  0.1018
   14PEO   H1C0 9574   7.148   4.035  -1.974 -0.4828 -0.3900 -1.3272
   14PEO   O1C1 9575   6.946   4.094  -2.022  0.5993 -0.1374  0.1105
   14PEO   H1C2 9576   6.847   4.205  -2.162 -1.1679 -0.0489  0.3872
   14PEO   H1C3 9577   6.897   4.300  -2.023 -0.1529  0.5356  2.1051
   14PEO   C1C4 9578   6.854   4.203  -2.052  0.7913  0.6246  0.3050
   14PEO   C1C5 9579   6.721   4.184  -1.972 -0.1282 -0.1227  0.2137
   14PEO   H1C6 9580   6.749   4.156  -1.870  2.0414  1.3315  0.0827
   14PEO   H1C7 9581   6.656   4.271  -1.954  0.4464  0.4181 -0.2620
   14PEO   O1C8 9582   6.645   4.076  -2.034  0.2765 -0.7411 -0.3128
   14PEO   H1C9 9583   6.646   4.119  -2.237 -1.4007  0.9718 -0.8537
   14PEO   H1CA 9584   6.544   4.229  -2.134 -2.2053 -0.4449 -0.4845
   14PEO   C1CB 9585   6.574   4.125  -2.153 -0.4636 -0.0770  0.0567
   14PEO   C1CC 9586   6.459   4.045  -2.200  1.1491  0.9856 -0.0049
   14PEO   H1CD 9587   6.402   4.043  -2.106 -0.2160  0.4558 -0.8112
   14PEO   H1CE 9588   6.391   4.100  -2.267  1.9736  2.6639  0.4663
   14PEO   O1CF 9589   6.492   3.917  -2.251  0.2539 -0.3645 -0.0833
   14PEO   H1D0 9590   6.583   3.993  -2.427 -1.4976  1.6243  0.7338
   14PEO   H1D1 9591   6.414   3.954  -2.441 -1.6834  1.5468  2.0649
   14PEO   C1D2 9592   6.508   3.920  -2.394 -0.8180  0.3808 -0.3727
   14PEO   C1D3 9593   6.560   3.784  -2.437 -0.4274  0.4963  0.3872
   14PEO   H1D4 9594   6.572   3.780  -2.546 -3.4189  1.5155 -0.0755
   14PEO   H1D5 9595   6.652   3.774  -2.378 -0.6115  0.9899  0.7647
   14PEO   O1D6 9596   6.468   3.677  -2.383 -0.6134 -0.0986  0.0411
   14PEO   H1D7 9597   6.285   3.765  -2.446 -1.6767 -0.9100  0.2090
   14PEO   H1D8 9598   6.271   3.614  -2.364 -2.0871 -0.5642 -1.8265
   14PEO   C1D9 9599   6.336   3.667  -2.435  0.1411  0.0125  0.4755
   14PEO   C1DA 9600   6.340   3.577  -2.560 -0.8125 -0.2779  0.0778
   14PEO   H1DB 9601   6.397   3.487  -2.530 -0.0490  0.9437  2.5738
   14PEO   H1DC 9602   6.246   3.534  -2.596 -0.7938  0.7083 -1.2128
   14PEO   O1DD 9603   6.407   3.642  -2.670  0.4940 -0.5023 -0.6249
   14PEO   H1DE 9604   6.340   3.844  -2.644 -0.3829  0.6533 -1.0210
   14PEO   H1DF 9605   6.245   3.723  -2.743 -0.4365  0.3566  1.2342
   14PEO   C1E0 9606   6.344   3.762  -2.718  0.0939  0.3563 -0.6738
   14PEO   C1E1 9607   6.423   3.808  -2.838  0.4996 -0.0821  0.6197
   14PEO   H1E2 9608   6.466   3.723  -2.893 -0.0982  0.5250 -0.8540
   14PEO   H1E3 9609   6.355   3.861  -2.906  2.8593  2.5427  0.1302
   14PEO   O1E4 9610   6.519   3.901  -2.793 -0.5435 -0.0103  0.2338
   14PEO   H1E5 9611   6.577   4.003  -2.968 -0.8758  0.1435 -0.0302
   14PEO   H1E6 9612   6.689   3.875  -2.922  2.0343  1.6447 -1.8376
   14PEO   C1E7 9613   6.625   3.955  -2.882  0.4453 -0.0532 -0.8438
   14PEO   C1E8 9614   6.712   4.051  -2.799 -0.1839  0.1361 -0.1553
   14PEO   H1E9 9615   6.791   4.081  -2.869 -0.3594  0.5942 -0.1602
   14PEO   H1EA 9616   6.657   4.142  -2.769  0.4382  0.6652 -0.5833
   14PEO   O1EB 9617   6.774   3.985  -2.683 -0.5280 -0.4611 -0.3389
   14PEO   H1EC 9618   6.721   4.133  -2.541 -0.9256 -0.3522  0.2279
   14PEO   H1ED 9619   6.876   4.154  -2.615  1.0916 -0.3360  2.7644
   14PEO   C1EE 9620   6.809   4.077  -2.574 -0.6425 -0.1017  0.5504
   14PEO   C1EF 9621   6.869   3.990  -2.459 -0.1991 -0.1927 -0.3722
   14PEO   H1F0 9622   6.842   4.028  -2.359  0.3957  4.1107 -1.6149
   14PEO   H1F1 9623   6.836   3.885  -2.464 -0.2814 -0.2429  0.9267
   14PEO   O1F2 9624   7.013   3.996  -2.470  0.5577 -0.1390 -0.7082
   14PEO   H1F3 9625   7.047   4.091  -2.285 -0.1793  2.3066 -0.0850
   14PEO   H1F4 9626   7.023   4.195  -2.427 -3.2124 -0.9429  0.7568
   14PEO   C1F5 9627   7.068   4.101  -2.393 -0.2326 -0.0541 -0.3575
   14PEO   C1F6 9628   7.226   4.109  -2.409  0.0594  0.8483  0.5012
   14PEO   H1F7 9629   7.255   4.112  -2.515  0.4111 -0.3991  0.5463
   14PEO   H1F8 9630   7.261   4.202  -2.361 -0.3276  0.1170  2.2807
   14PEO   O1F9 9631   7.286   3.998  -2.341  0.3024  0.3890 -0.0914
   14PEO   H1FA 9632   7.470   4.074  -2.412  1.6064 -0.0203  0.5802
   14PEO   H1FB 9633   7.466   3.903  -2.359  1.7441  0.7497 -0.5209
   14PEO   C1FC 9634   7.428   4.004  -2.338 -0.3862 -0.0261 -0.4860
   14PEO   C1FD 9635   7.477   4.033  -2.197 -0.1437 -0.4536 -0.3907
   14PEO   H1FE 9636   7.445   3.942  -2.145 -0.5556 -0.6746 -1.0293
   14PEO   H1FF 9637   7.587   4.042  -2.202 -0.1534 -0.6655 -1.0266
   14PEO   O200 9638   7.429   4.158  -2.143 -0.3822 -0.3207 -0.4930
   14PEO   H201 9639   7.618   4.174  -2.053 -0.6752 -0.1516 -0.4065
   14PEO   H202 9640   7.492   4.131  -1.938  1.7459  0.4616  1.7143
   14PEO   C203 9641   7.512   4.190  -2.029 -0.5330 -0.4909  0.5036
   14PEO   C204 9642   7.488   4.335  -2.007 -0.6167  0.1066 -0.1963
   14PEO   H205 9643   7.388   4.351  -1.963 -2.2660 -2.9914 -2.4587
   14PEO   H206 9644   7.549   4.374  -1.924  0.1031 -2.1161  0.4040
   14PEO   O207 9645   7.491   4.427  -2.115  0.0764  0.8513 -0.1703
   14PEO   H208 9646   7.514   4.637  -2.155  1.5975  2.6831  3.2755
   14PEO   H209 9647   7.507   4.594  -1.981  1.0296  0.7853 -0.1883
   14PEO   C20A 9648   7.468   4.570  -2.081 -0.0375  0.3158  0.3250
   14PEO   C20B 9649   7.314   4.597  -2.075  0.9561 -0.9224 -0.5416
   14PEO   H20C 9650   7.281   4.698  -2.101  2.6534 -0.4520 -1.0103
   14PEO   H20D 9651   7.278   4.520  -2.145  2.3954 -2.6660  0.5255
   14PEO   O20E 9652   7.270   4.573  -1.938  0.2616  0.0410 -0.3337
   14PEO   H20F 9653   7.116   4.441  -1.948  4.0033  0.1421 -0.3710
   14PEO   H210 9654   7.079   4.612  -1.998  0.0650  1.4255  1.2816
   14PEO   C211 9655   7.129   4.547  -1.924 -0.3067  0.6009  0.8329
   14PEO   C212 9656   7.065   4.585  -1.792  0.0342 -0.4131 -0.6333
   14PEO   H213 9657   7.096   4.691  -1.789  2.6342 -1.1296  1.3196
   14PEO   H214 9658   6.955   4.582  -1.788  0.0155  0.7483  1.9941
   14PEO   O215 9659   7.130   4.525  -1.679  0.6145  0.3936 -0.2497
   14PEO   H216 9660   7.007   4.602  -1.537  0.0087 -0.1583  0.3996
   14PEO   H217 9661   7.152   4.700  -1.567 -0.4010  0.7635  1.6871
   14PEO   C218 9662   7.116   4.597  -1.554  0.0479  0.4248  0.4557
   14PEO   C219 9663   7.184   4.527  -1.439 -0.2526 -0.5341  0.0423
   14PEO   H21A 9664   7.282   4.487  -1.466  0.1222 -0.5528  1.3347
   14PEO   H21B 9665   7.187   4.595  -1.352 -0.4980  0.5926 -0.8123
   14PEO   O21C 9666   7.122   4.410  -1.396 -0.0112  1.0726 -0.0190
   14PEO   H21D 9667   7.274   4.280  -1.417  1.1810  1.8421 -3.0142
   14PEO   H21E 9668   7.181   4.301  -1.567 -0.9388  0.4471 -0.3929
   14PEO   C21F 9669   7.173   4.291  -1.458 -0.1601  0.3966 -0.3320
   14PEO   C220 9670   7.098   4.165  -1.425 -0.3488 -0.0841 -0.1415
   14PEO   H221 9671   7.010   4.155  -1.490  0.7421 -1.1466 -1.5199
   14PEO   H222 9672   7.161   4.079  -1.453 -3.0193 -1.6314 -1.8878
   14PEO   O223 9673   7.049   4.181  -1.290 -0.7007 -0.1328  0.2594
   14PEO   H224 9674   7.028   3.998  -1.192  1.4054  1.5170 -1.7145
   14PEO   H225 9675   6.905   4.031  -1.319  1.7227  1.4849 -2.9679
   14PEO   C226 9676   6.966   4.076  -1.239 -0.5608  0.6770 -0.6410
   14PEO   C227 9677   6.874   4.128  -1.122  0.6308 -0.0104 -0.0202
   14PEO   H228 9678   6.835   4.229  -1.143  1.5647  0.5267  0.7420
   14PEO   H229 9679   6.790   4.057  -1.112  1.8311 -1.4326  0.3481
   14PEO   O22A 9680   6.937   4.103  -0.993 -0.7130 -0.5870  0.2017
   14PEO   H22B 9681   7.065   4.276  -0.998 -0.2932 -0.1758 -0.3726
   14PEO   H22C 9682   7.141   4.132  -1.034 -1.0736  0.4962 -0.6592
   14PEO   C22D 9683   7.063   4.171  -0.967 -0.2681  0.0865  0.5458
   14PEO   C22E 9684   7.103   4.138  -0.818  0.3465  0.2227  0.4275
   14PEO   H22F 9685   7.075   4.224  -0.757 -0.3814  1.7873 -1.9611
   14PEO   H230 9686   7.043   4.050  -0.790 -1.0366  0.4142 -1.6902
   14PEO   O231 9687   7.252   4.112  -0.809 -0.0859 -0.0047  0.6109
   14PEO   H232 9688   7.237   3.917  -0.740  2.9371 -2.0842  0.9016
   14PEO   H233 9689   7.251   4.049  -0.607 -0.0827 -2.6020  1.1893
   14PEO   C234 9690   7.281   4.013  -0.707 -0.6698  0.0677 -0.0406
   14PEO   C235 9691   7.432   3.973  -0.725 -0.1699 -0.2300  0.2396
   14PEO   H236 9692   7.452   3.870  -0.692 -0.3468 -0.7508 -1.2151
   14PEO   H237 9693   7.455   3.975  -0.833  1.3512  2.1191  0.5174
   14PEO   O238 9694   7.525   4.066  -0.673 -0.0130 -0.1730 -0.7764
   14PEO   H239 9695   7.677   4.025  -0.814  0.8598  1.6453 -0.2631
   14PEO   H23A 9696   7.701   3.942  -0.654  0.7937  0.4069 -0.1574
   14PEO   C23B 9697   7.663   4.032  -0.705 -0.3622 -0.1195 -0.2637
   14PEO   C23C 9698   7.745   4.156  -0.662  0.0747  0.4999 -0.1424
   14PEO   H23D 9699   7.702   4.192  -0.567 -1.0439 -1.9401  0.3682
   14PEO   H23E 9700   7.845   4.117  -0.641  0.2424  1.8422  1.8108
   14PEO   O23F 9701   7.735   4.253  -0.771 -0.0662 -0.5888  0.8291
   14PEO   H240 9702   7.912   4.334  -0.739  0.9431  1.8565 -0.3560
   14PEO   H241 9703   7.769   4.413  -0.658 -1.8264 -2.0536  0.3095
   14PEO   C242 9704   7.808   4.368  -0.750  0.5668  0.7843 -0.2056
   14PEO   C243 9705   7.790   4.458  -0.876 -0.1083 -0.8077 -0.0998
   14PEO   H244 9706   7.684   4.476  -0.895 -0.4558 -1.5731  1.0148
   14PEO   H245 9707   7.828   4.557  -0.846  1.3383 -0.9597 -1.2883
   14PEO   O246 9708   7.855   4.409  -0.992 -0.4130 -0.1826 -0.0731
   14PEO   H247 9709   8.045   4.487  -0.919  1.4506 -1.4577 -0.6924
   14PEO   H248 9710   8.026   4.461  -1.093  2.0961  0.5970  0.1112
   14PEO   C249 9711   8.001   4.420  -0.994 -0.2366 -0.3048 -0.7957
   14PEO   C24A 9712   8.061   4.277  -0.970  0.7223  0.7361  0.2113
   14PEO   H24B 9713   8.163   4.304  -0.940 -0.2462  3.2672  1.5942
   14PEO   H24C 9714   8.007   4.234  -0.884  0.6218 -0.0057 -0.2178
   14PEO   O24D 9715   8.056   4.192  -1.088 -0.3659  0.4257 -0.0909
   14PEO   H24E 9716   7.992   4.020  -0.995 -0.7252  0.2053 -1.4131
   14PEO   H24F 9717   8.165   4.029  -1.012 -0.6099  0.0991  0.1374
   14PEO   C250 9718   8.071   4.047  -1.066 -0.0992  0.1375 -0.7563
   14PEO   C251 9719   8.051   3.979  -1.205  0.1618  0.0128 -1.2384
   14PEO   H252 9720   8.051   3.870  -1.194 -2.1123 -0.3278 -3.6878
   14PEO   H253 9721   7.950   4.002  -1.242 -0.8531 -0.1913  1.2077
   14PEO   O254 9722   8.152   4.011  -1.290 -0.3736 -1.0424  0.0902
   14PEO   H255 9723   8.047   3.968  -1.475 -0.1441 -0.2820 -1.8133
   14PEO   H256 9724   8.129   3.833  -1.405 -2.4003 -0.5065 -5.0649
   14PEO   C257 9725   8.137   3.942  -1.417 -0.7892  0.0771 -0.6188
   14PEO   C258 9726   8.259   3.980  -1.506  0.1281  0.2330  0.1783
   14PEO   H259 9727   8.308   4.062  -1.452  0.7993 -1.1116  1.6974
   14PEO   H25A 9728   8.326   3.894  -1.523  4.0168  3.4014 -2.3632
   14PEO   O25B 9729   8.196   4.032  -1.627 -0.3990 -0.1121  0.0343
   14PEO   H25C 9730   8.335   3.955  -1.757 -0.3454  0.2361 -0.9312
   14PEO   H25D 9731   8.361   4.125  -1.711  0.8002 -0.3005 -0.3957
   14PEO   C25E 9732   8.284   4.051  -1.739  0.0151  0.1793  0.4563
   14PEO   C25F 9733   8.193   4.099  -1.851 -0.0661  0.0576  0.1590
   14PEO   H260 9734   8.142   4.185  -1.806 -1.0961 -0.2781 -0.3448
   14PEO   H261 9735   8.260   4.126  -1.934  1.5894 -2.2066  0.6316
   14PEO   O262 9736   8.109   3.997  -1.880  0.0760 -0.5152  0.6565
   14PEO   H263 9737   8.074   4.058  -2.081  0.2007 -2.6751 -0.3080
   14PEO   H264 9738   7.962   4.114  -1.950 -1.8203 -1.0549  0.9392
   14PEO   C265 9739   8.022   4.030  -1.988 -0.0195  0.3387  0.5909
   14PEO   C266 9740   7.925   3.913  -2.017  0.0536 -0.7497 -0.1348
   14PEO   H267 9741   7.894   3.918  -2.123 -2.1425  1.9154  0.5014
   14PEO   H268 9742   7.975   3.818  -1.994  1.7233 -0.7473 -3.2065
   14PEO   O269 9743   7.806   3.948  -1.943 -0.0692  0.8057  0.2260
   14PEO   H26A 9744   7.660   3.850  -2.074 -2.5389  0.3800  0.3997
   14PEO   H26B 9745   7.598   3.894  -1.923  0.5792 -1.0346  0.2231
   14PEO   C26C 9746   7.692   3.862  -1.970  0.7306  0.4115 -0.5242
   14PEO   C26D 9747   7.722   3.714  -1.927 -0.6773 -1.0145  0.2380
   14PEO   H26E 9748   7.628   3.658  -1.940 -1.3421 -0.3415  1.8369
   14PEO   H26F 9749   7.799   3.676  -1.995 -1.2099 -0.3240 -0.7845
   14PEO   O270 9750   7.766   3.698  -1.795 -0.3992  0.0959 -0.4913
   14PEO   H271 9751   7.855   3.518  -1.818 -0.1468  0.1143 -0.4952
   14PEO   H272 9752   7.686   3.507  -1.749  0.2763 -0.3068  0.4858
   14PEO   C273 9753   7.779   3.565  -1.753  0.1470 -0.1317  0.0309
   14PEO   C274 9754   7.851   3.572  -1.620  0.3018  0.4712 -0.5632
   14PEO   H275 9755   7.906   3.477  -1.607 -0.8757 -0.3217 -1.1442
   14PEO   H276 9756   7.923   3.655  -1.621 -0.6840  1.3697 -2.5870
   14PEO   O277 9757   7.744   3.581  -1.524 -0.7424 -0.1008 -0.7592
   14PEO   H278 9758   7.623   3.706  -1.409  0.5145 -1.2045  0.9658
   14PEO   H279 9759   7.696   3.795  -1.544  0.0286  1.3707  1.5073
   14PEO   C27A 9760   7.712   3.714  -1.472 -0.1224  0.1455  0.1961
   14PEO   C27B 9761   7.810   3.775  -1.376  0.7408 -0.5261  0.3401
   14PEO   H27C 9762   7.912   3.763  -1.416  2.2370 -0.6208  3.8074
   14PEO   H27D 9763   7.794   3.884  -1.373  0.6280 -0.5185 -0.3873
   14PEO   O27E 9764   7.800   3.723  -1.244 -0.3275  0.1580 -0.9753
   14PEO   H27F 9765   7.963   3.581  -1.253  0.1762 -0.7391  1.6850
   14PEO   H280 9766   7.799   3.518  -1.276 -0.6860 -0.0105  0.6612
   14PEO   C281 9767   7.858   3.592  -1.220 -0.2558  0.0398  0.1545
   14PEO   C282 9768   7.840   3.572  -1.066  0.4392 -0.3251  0.9956
   14PEO   H283 9769   7.889   3.487  -1.016 -3.2466 -2.3775  1.4901
   14PEO   H284 9770   7.874   3.663  -1.015  3.5751 -0.9671  0.2169
   14PEO   O285 9771   7.696   3.570  -1.053 -0.1306  0.0577  0.0894
   14PEO   H286 9772   7.664   3.714  -0.903 -1.9049  1.0777  0.2641
   14PEO   H287 9773   7.671   3.541  -0.848  1.2368  1.9440  1.4596
   14PEO   C288 9774   7.638   3.610  -0.927  0.4859  0.4112  0.3853
   14PEO   C289 9775   7.476   3.594  -0.938  0.1210  0.2220 -0.2191
   14PEO   H28A 9776   7.450   3.495  -0.978  0.1818  0.1531 -0.0908
   14PEO   H28B 9777   7.440   3.596  -0.834  1.6824  1.0076  0.3474
   14PEO   O28C 9778   7.418   3.703  -1.023  0.1394  0.0683 -0.1850
   14PEO   H28D 9779   7.252   3.755  -0.909 -0.9711  1.0073 -0.3279
   14PEO   H28E 9780   7.229   3.615  -1.017  0.7392 -0.1176 -0.4895
   14PEO   C28F 9781   7.277   3.714  -1.008  0.4044 -0.0287  0.4084
   14PEO   C290 9782   7.206   3.804  -1.111 -0.2902 -0.2694  0.7529
   14PEO   H291 9783   7.099   3.815  -1.087 -0.2782  0.5548  0.4761
   14PEO   H292 9784   7.249   3.905  -1.105 -0.0479 -0.3844  0.9828
   14PEO   O293 9785   7.227   3.750  -1.236  0.5920 -0.6101  0.2530
   14PEO   H294 9786   7.392   3.624  -1.272  0.7409 -0.1295 -0.3097
   14PEO   H295 9787   7.435   3.792  -1.239  1.3750 -3.4777  2.3292
   14PEO   C296 9788   7.363   3.729  -1.292 -0.1029 -0.2595  0.2011
   14PEO   C297 9789   7.355   3.754  -1.441  0.0094  0.1437  0.2369
   14PEO   H298 9790   7.422   3.688  -1.498  0.2496  1.6235 -1.2627
   14PEO   H299 9791   7.254   3.723  -1.473  0.5180 -1.9354  0.4785
   14PEO   O29A 9792   7.381   3.892  -1.478 -0.2599 -0.1682  0.4880
   14PEO   H29B 9793   7.261   3.948  -1.636  0.0484  1.1376 -0.2611
   14PEO   H29C 9794   7.409   3.863  -1.689  1.8076  1.8881 -1.2831
   14PEO   C29D 9795   7.368   3.933  -1.614 -0.1836 -0.4138 -0.0979
   14PEO   C29E 9796   7.452   4.058  -1.640  0.1276  0.3461 -0.3295
   14PEO   H29F 9797   7.436   4.087  -1.745 -2.4891  1.8124  0.3703
   14PEO   H2A0 9798   7.419   4.153  -1.593  0.2416 -0.2205  0.9549
   14PEO   O2A1 9799   7.588   4.034  -1.623  0.3104  0.0614  0.6216
   14PEO   H2A2 9800   7.630   4.237  -1.695 -1.3557 -0.8487 -1.3030
   14PEO   H2A3 9801   7.689   4.104  -1.793 -1.0121  1.0580  0.3319
   14PEO   C2A4 9802   7.676   4.137  -1.689  0.2619 -0.0579  0.8761
   14PEO   C2A5 9803   7.805   4.136  -1.615  0.0634 -0.6164 -0.1793
   14PEO   H2A6 9804   7.833   4.032  -1.596  1.1106 -0.6419 -1.6909
   14PEO   H2A7 9805   7.871   4.176  -1.693  0.3786  0.2453  0.5144
   14PEO   O2A8 9806   7.807   4.238  -1.509 -0.6878  0.2365  0.1000
   14PEO   H2A9 9807   8.005   4.294  -1.546 -2.3712  0.6125 -2.2473
   14PEO   H2AA 9808   7.977   4.156  -1.430 -2.0924  0.2358  1.4995
   14PEO   C2AB 9809   7.944   4.256  -1.462 -0.1424  0.2425 -0.7145
   14PEO   C2AC 9810   7.935   4.358  -1.345  0.4423  0.4206  0.3031
   14PEO   H2AD 9811   7.860   4.318  -1.276 -0.5281 -0.6150 -1.2711
   14PEO   H2AE 9812   8.029   4.365  -1.288  3.1422  0.8314 -3.7739
   14PEO   O2AF 9813   7.907   4.490  -1.395 -0.1004 -0.4325  0.3972
   14PEO   H2B0 9814   7.993   4.614  -1.243 -0.6733  1.3913  1.8713
   14PEO   H2B1 9815   7.818   4.562  -1.228  0.1805  1.9364  0.4496
   14PEO   C2B2 9816   7.900   4.589  -1.296  0.5263  0.2984  0.1661
   14PEO   C2B3 9817   7.850   4.710  -1.373 -0.4160 -0.1809  0.4163
   14PEO   H2B4 9818   7.772   4.676  -1.443  0.1169 -2.1655  0.7491
   14PEO   H2B5 9819   7.824   4.789  -1.301  0.9341 -0.6939  1.4865
   14PEO   O2B6 9820   7.964   4.749  -1.457 -0.5702  0.3407 -0.3985
   14PEO   H2B7 9821   7.840   4.917  -1.514  0.4610  0.7272 -2.8697
   14PEO   H2B8 9822   7.946   4.833  -1.638  0.9482 -0.5452 -0.4143
   14PEO   C2B9 9823   7.937   4.868  -1.534  0.5834 -0.0801 -0.5992
   14PEO   C2BA 9824   8.049   4.975  -1.503  0.2596 -0.2533 -0.6048
   14PEO   H2BB 9825   8.146   4.932  -1.532  2.5456  4.2141 -0.3529
   14PEO   H2BC 9826   8.025   5.060  -1.568 -0.0724 -1.7421 -2.5244
   14PEO   O2BD 9827   8.057   5.012  -1.368  0.2446  0.5775 -0.1934
   14PEO   H2BE 9828   8.041   4.928  -1.323  2.2161  0.8201  1.0785
   15PEO   H001 9829   5.752   1.206   5.848  1.0225  1.7658 -0.3555
   15PEO   H002 9830   5.806   1.117   5.707 -0.6429 -0.7536  0.0818
   15PEO   H003 9831   5.785   1.044   5.873  0.8986  0.7805  0.6245
   15PEO   C004 9832   5.824   1.129   5.815 -0.0137  0.6886 -0.1526
   15PEO   C005 9833   5.963   1.167   5.835 -0.2654  0.5210 -0.0509
   15PEO   H006 9834   6.004   1.173   5.937 -0.6217  1.1163  0.0616
   15PEO   H007 9835   6.012   1.082   5.785  0.6755  0.9876  0.0439
   15PEO   O008 9836   5.984   1.293   5.762  0.6977  0.3379 -0.1082
   15PEO   H009 9837   5.876   1.400   5.905 -0.0614  1.6515  1.2135
   15PEO   H00A 9838   5.929   1.497   5.770 -2.1040 -1.9361 -1.9158
   15PEO   C00B 9839   5.959   1.413   5.834 -0.6353  0.1166  0.1998
   15PEO   C00C 9840   6.077   1.442   5.925  0.5033  0.0182  1.1675
   15PEO   H00D 9841   6.045   1.518   5.997  1.5896  0.6529  1.0065
   15PEO   H00E 9842   6.106   1.350   5.978 -0.1719 -0.8582  0.0438
   15PEO   O00F 9843   6.183   1.509   5.852 -0.0901  0.6548  0.2881
   15PEO   H010 9844   6.334   1.474   5.981 -2.1242 -1.9851 -0.8018
   15PEO   H011 9845   6.247   1.639   6.001 -0.6884  1.5326 -2.0994
   15PEO   C012 9846   6.292   1.564   5.934  0.3186 -0.1599  0.2946
   15PEO   C013 9847   6.399   1.628   5.842 -1.0383 -0.1418  0.0398
   15PEO   H014 9848   6.361   1.711   5.781  0.0475  0.0855 -0.3505
   15PEO   H015 9849   6.455   1.676   5.923 -4.3459  0.4521  2.1578
   15PEO   O016 9850   6.478   1.532   5.781 -0.1707 -0.2754  0.7161
   15PEO   H017 9851   6.379   1.545   5.613  0.1752  0.9704  2.7122
   15PEO   H018 9852   6.356   1.377   5.679 -0.1820  0.7332  2.4370
   15PEO   C019 9853   6.427   1.460   5.664  0.7859 -0.4345 -0.0118
   15PEO   C01A 9854   6.533   1.410   5.573  0.2790  0.4190  0.0693
   15PEO   H01B 9855   6.487   1.384   5.477  1.3549  0.6245 -0.5123
   15PEO   H01C 9856   6.615   1.483   5.566  0.0181  0.6654 -0.3870
   15PEO   O01D 9857   6.579   1.289   5.632 -0.6420 -0.2687 -0.2735
   15PEO   H01E 9858   6.736   1.265   5.509 -2.4787  1.6521 -0.9480
   15PEO   H01F 9859   6.577   1.216   5.441 -3.2074  3.1162  1.4706
   15PEO   C020 9860   6.641   1.212   5.529 -1.1288 -0.5048  0.0104
   15PEO   C021 9861   6.659   1.062   5.568 -0.4392  0.7045 -0.0533
   15PEO   H022 9862   6.564   1.016   5.601  1.1544 -1.5483  1.6611
   15PEO   H023 9863   6.696   1.019   5.474 -3.0895 -0.9742 -0.4602
   15PEO   O024 9864   6.756   1.057   5.673  0.3645  0.3892 -0.2840
   15PEO   H025 9865   6.827   0.855   5.668  1.1133 -0.8680  0.8233
   15PEO   H026 9866   6.683   0.889   5.772  1.1772  0.1710  1.4499
   15PEO   C027 9867   6.778   0.930   5.733  0.6016 -0.1362 -0.3715
   15PEO   C028 9868   6.872   0.946   5.843  0.0029  0.5786 -0.0757
   15PEO   H029 9869   6.861   1.040   5.898  2.0990  0.8209  0.0180
   15PEO   H02A 9870   6.870   0.857   5.908 -2.9392  1.5909  1.3535
   15PEO   O02B 9871   7.013   0.946   5.793 -0.2115 -0.5609  0.4555
   15PEO   H02C 9872   7.029   1.147   5.736 -3.7279 -0.4478 -0.4345
   15PEO   H02D 9873   7.032   1.032   5.595  1.3956 -2.6649  0.2824
   15PEO   C02E 9874   7.059   1.047   5.700 -0.5501  0.0547  0.5036
   15PEO   C02F 9875   7.210   1.053   5.716  0.4988 -0.5717 -0.0283
   15PEO   H030 9876   7.231   1.161   5.714 -0.0339 -0.4710 -0.2870
   15PEO   H031 9877   7.250   0.992   5.799  0.0373 -0.1789  0.4844
   15PEO   O032 9878   7.266   0.995   5.595 -0.2113  0.2240 -0.0111
   15PEO   H033 9879   7.475   1.000   5.630 -0.5943 -1.1038  0.2158
   15PEO   H034 9880   7.409   1.149   5.568 -1.9981 -0.2503 -0.6846
   15PEO   C035 9881   7.397   1.039   5.563 -0.1332 -0.5308  0.0082
   15PEO   C036 9882   7.441   1.018   5.415  0.3550  0.1718  0.6386
   15PEO   H037 9883   7.374   1.076   5.349  1.3941  1.8112  0.9518
   15PEO   H038 9884   7.547   1.044   5.406  0.1184  1.0249  0.1308
   15PEO   O039 9885   7.425   0.883   5.375  0.0867 -0.0755  0.1987
   15PEO   H03A 9886   7.430   0.729   5.224 -2.3018  0.0909 -1.1310
   15PEO   H03B 9887   7.562   0.852   5.235 -0.9687  0.5174 -0.1592
   15PEO   C03C 9888   7.454   0.833   5.248 -0.9069 -0.3063 -0.7461
   15PEO   C03D 9889   7.388   0.910   5.135  0.4564 -0.0238 -0.0860
   15PEO   H03E 9890   7.400   0.866   5.035 -1.6857 -0.9469  0.0309
   15PEO   H03F 9891   7.284   0.924   5.167  1.0009  1.4295  1.2003
   15PEO   O040 9892   7.460   1.034   5.126  0.7281 -0.1989 -0.1603
   15PEO   H041 9893   7.379   1.056   4.928  1.2983 -0.7281 -0.4101
   15PEO   H042 9894   7.474   1.196   4.991  2.5973 -2.0838  0.1808
   15PEO   C043 9895   7.402   1.117   5.016  0.1656 -0.2110 -0.4581
   15PEO   C044 9896   7.262   1.177   5.062  0.2532 -0.0286  0.3368
   15PEO   H045 9897   7.222   1.252   4.993 -1.6154 -0.2072  1.1646
   15PEO   H046 9898   7.190   1.094   5.051  2.0497 -2.1577  3.0172
   15PEO   O047 9899   7.269   1.225   5.193 -0.5488 -0.3037 -0.6110
   15PEO   H048 9900   7.408   1.391   5.173 -0.4360 -0.0895 -1.0497
   15PEO   H049 9901   7.342   1.361   5.338 -2.3725 -0.4315 -0.1352
   15PEO   C04A 9902   7.320   1.359   5.230 -0.2791  0.2149 -0.6256
   15PEO   C04B 9903   7.210   1.459   5.195 -0.1073 -0.0056  0.2895
   15PEO   H04C 9904   7.109   1.417   5.208  0.1451 -1.5795 -2.0600
   15PEO   H04D 9905   7.225   1.547   5.259  0.4940 -0.9016  1.4203
   15PEO   O04E 9906   7.226   1.493   5.057 -0.4019 -0.0787  0.0802
   15PEO   H04F 9907   7.112   1.689   5.044 -2.4923  0.5026 -0.0481
   15PEO   H050 9908   7.022   1.551   4.996 -0.9408  2.2361  0.8550
   15PEO   C051 9909   7.125   1.589   5.001 -0.2919  0.6539  0.1705
   15PEO   C052 9910   7.182   1.616   4.860 -1.2870 -0.4565  0.5131
   15PEO   H053 9911   7.232   1.529   4.815  2.2785  2.6348 -2.1934
   15PEO   H054 9912   7.115   1.658   4.783  2.0622  0.3028 -2.2264
   15PEO   O055 9913   7.292   1.708   4.881  0.1009  0.3365  0.2388
   15PEO   H056 9914   7.411   1.833   4.788 -0.3829 -1.0608  1.0756
   15PEO   H057 9915   7.275   1.773   4.686 -0.5968 -0.5465 -1.1275
   15PEO   C058 9916   7.353   1.745   4.757 -0.8857 -0.1769 -0.6539
   15PEO   C059 9917   7.452   1.628   4.723 -1.0055 -0.4576 -0.0612
   15PEO   H05A 9918   7.416   1.526   4.744  2.7962 -1.8347  0.7112
   15PEO   H05B 9919   7.466   1.632   4.614 -2.0698  1.3449 -0.1570
   15PEO   O05C 9920   7.581   1.657   4.783  0.0730  0.6298  0.4366
   15PEO   H05D 9921   7.602   1.468   4.858  0.5751  0.2034  0.9546
   15PEO   H05E 9922   7.551   1.600   4.981 -0.6470  1.5492 -0.3661
   15PEO   C05F 9923   7.613   1.571   4.895  0.3152  0.3290  0.6818
   15PEO   C060 9924   7.762   1.599   4.930 -0.1158 -0.0901  0.4636
   15PEO   H061 9925   7.796   1.703   4.916 -0.1112 -0.2103 -0.4777
   15PEO   H062 9926   7.780   1.571   5.035  0.9589 -1.3367 -0.0320
   15PEO   O063 9927   7.838   1.518   4.839 -0.5752 -0.5220 -0.1425
   15PEO   H064 9928   7.994   1.537   4.980  0.7185  2.4266 -1.7792
   15PEO   H065 9929   8.018   1.614   4.817 -1.2425 -0.1882 -1.9908
   15PEO   C066 9930   7.977   1.528   4.872  0.0887 -0.5532 -1.5259
   15PEO   C067 9931   8.050   1.396   4.843 -0.0052 -0.5630 -1.0407
   15PEO   H068 9932   8.137   1.402   4.910 -2.5446  0.2549  2.4773
   15PEO   H069 9933   7.985   1.311   4.870  0.2062 -0.3131  0.3592
   15PEO   O06A 9934   8.089   1.385   4.705  0.2736  0.2694 -0.2599
   15PEO   H06B 9935   8.100   1.171   4.679 -1.2044  0.3521 -0.4884
   15PEO   H06C 9936   8.242   1.248   4.762  2.6644  0.8775 -2.4294
   15PEO   C06D 9937   8.161   1.262   4.688 -0.5810 -0.1643  0.6600
   15PEO   C06E 9938   8.214   1.285   4.544 -0.3827  0.4281 -0.3841
   15PEO   H06F 9939   8.242   1.185   4.506 -1.3944 -0.5348  1.2947
   15PEO   H070 9940   8.140   1.320   4.470  1.4046  4.4349 -0.5225
   15PEO   O071 9941   8.327   1.375   4.544  0.2104 -0.2054 -0.1014
   15PEO   H072 9942   8.354   1.415   4.349 -0.9117  0.2654  0.8713
   15PEO   H073 9943   8.443   1.274   4.408 -0.1889 -1.3000 -1.1041
   15PEO   C074 9944   8.414   1.377   4.433  0.3356 -1.2630 -0.6400
   15PEO   C075 9945   8.525   1.481   4.466 -0.6758 -0.1723 -0.0066
   15PEO   H076 9946   8.585   1.514   4.380  0.2187 -2.0728 -0.1823
   15PEO   H077 9947   8.484   1.572   4.511 -0.1887 -0.4505  1.0351
   15PEO   O078 9948   8.613   1.424   4.567  0.3366 -0.2038  0.0226
   15PEO   H079 9949   8.798   1.411   4.481 -1.9780  0.9271 -1.4641
   15PEO   H07A 9950   8.700   1.263   4.458  0.7907 -0.5573  1.3017
   15PEO   C07B 9951   8.722   1.346   4.527 -0.5981  0.5741  0.4366
   15PEO   C07C 9952   8.788   1.294   4.661  0.8930 -0.3562  0.4975
   15PEO   H07D 9953   8.846   1.372   4.712  1.3915 -0.6949  0.4525
   15PEO   H07E 9954   8.718   1.252   4.735 -0.1519 -0.5225 -0.5434
   15PEO   O07F 9955   8.866   1.174   4.633 -0.0153 -0.3659 -0.3303
   15PEO   H080 9956   8.681   1.062   4.642 -0.0715 -0.3724  0.8740
   15PEO   H081 9957   8.817   1.012   4.744 -0.3600 -2.7554 -0.6487
   15PEO   C082 9958   8.790   1.047   4.644 -0.1010 -0.7701 -0.0621
   15PEO   C083 9959   8.845   0.951   4.542  0.2475  0.6555  1.0828
   15PEO   H084 9960   8.955   0.951   4.545  0.2940 -1.2150  0.5277
   15PEO   H085 9961   8.821   0.852   4.584  0.4402  0.3279  0.4374
   15PEO   O086 9962   8.771   0.978   4.424 -0.1024 -0.0327 -0.6740
   15PEO   H087 9963   8.792   0.781   4.347  1.8491 -1.1481 -3.4389
   15PEO   H088 9964   8.907   0.893   4.282 -0.1587  0.2719  1.2989
   15PEO   C089 9965   8.802   0.885   4.313 -0.4828  0.5235  0.2729
   15PEO   C08A 9966   8.689   0.917   4.206  0.7484  0.4382  0.0990
   15PEO   H08B 9967   8.681   1.026   4.190 -0.9272  0.4133  0.5026
   15PEO   H08C 9968   8.708   0.870   4.109  0.3984 -0.9255  0.6677
   15PEO   O08D 9969   8.559   0.880   4.254  0.0760  0.3279 -0.2977
   15PEO   H08E 9970   8.614   0.675   4.303  1.2915  2.5339 -1.2581
   15PEO   H08F 9971   8.560   0.702   4.142  2.6830 -0.1421  0.5167
   15PEO   C090 9972   8.539   0.733   4.246 -0.4355  1.2169 -0.4043
   15PEO   C091 9973   8.390   0.703   4.284 -0.8429  1.4077  0.8840
   15PEO   H092 9974   8.368   0.597   4.306  0.0633  1.0663  0.2106
   15PEO   H093 9975   8.354   0.774   4.360 -1.1188  2.0435  0.1715
   15PEO   O094 9976   8.322   0.730   4.161  0.0066 -0.0112 -0.4799
   15PEO   H095 9977   8.144   0.817   4.082  1.7190  2.8842  1.0897
   15PEO   H096 9978   8.186   0.864   4.247  1.0233 -0.9580  0.4619
   15PEO   C097 9979   8.188   0.780   4.175  0.4670 -0.8968  0.3731
   15PEO   C098 9980   8.093   0.662   4.225 -0.0077  0.5065 -0.6440
   15PEO   H099 9981   7.989   0.690   4.204 -0.3993 -1.0348 -0.8880
   15PEO   H09A 9982   8.122   0.570   4.173 -1.0812 -0.8728  1.0583
   15PEO   O09B 9983   8.124   0.638   4.372  0.3116  0.0744 -0.7303
   15PEO   H09C 9984   8.149   0.431   4.359  0.8927  1.7750 -2.5495
   15PEO   H09D 9985   7.979   0.493   4.361 -0.5375  3.6120  0.5947
   15PEO   C09E 9986   8.081   0.506   4.401  0.2801 -0.1541  0.1674
   15PEO   C09F 9987   8.084   0.492   4.551  0.4610  0.1921  0.5136
   15PEO   H0A0 9988   8.003   0.546   4.604 -0.2197 -2.0490  1.9219
   15PEO   H0A1 9989   8.063   0.389   4.583 -0.4214 -0.0387 -0.7660
   15PEO   O0A2 9990   8.208   0.537   4.612  0.4251 -0.6963 -0.1281
   15PEO   H0A3 9991   8.110   0.581   4.783 -0.6293  0.5232  0.4986
   15PEO   H0A4 9992   8.294   0.590   4.798  0.0502 -1.1385  0.6281
   15PEO   C0A5 9993   8.207   0.539   4.753 -0.7248  0.5432  0.1633
   15PEO   C0A6 9994   8.236   0.392   4.796 -0.4535 -0.4629 -0.7660
   15PEO   H0A7 9995   8.185   0.378   4.892  0.1319  1.9603 -0.0408
   15PEO   H0A8 9996   8.194   0.315   4.730 -0.6799 -1.1502  0.1633
   15PEO   O0A9 9997   8.381   0.379   4.805  0.4227  0.4291 -0.2745
   15PEO   H0AA 9998   8.530   0.243   4.811  0.9316  4.0464  2.6747
   15PEO   H0AB 9999   8.359   0.168   4.782 -0.0762  0.8621  0.5946
   15PEO   C0AC10000   8.422   0.242   4.834  0.4235  0.2589  0.8629
   15PEO   C0AD10001   8.424   0.211   4.980 -0.7887 -0.1857  0.1336
   15PEO   H0AE10002   8.497   0.131   4.998 -1.1897 -0.3003  1.3120
   15PEO   H0AF10003   8.458   0.299   5.037  0.6093 -0.4778 -0.2127
   15PEO   O0B010004   8.290   0.178   5.021 -0.3830 -0.1930 -0.6834
   15PEO   H0B110005   8.325   0.223   5.226 -1.0873  0.3313  1.4025
   15PEO   H0B210006   8.295   0.050   5.181  0.3862  0.4314  0.8648
   15PEO   C0B310007   8.264   0.154   5.164  0.2454  0.2743  0.1008
   15PEO   C0B410008   8.115   0.189   5.197 -0.5545  0.5679  0.2295
   15PEO   H0B510009   8.099   0.203   5.305 -2.4918  0.4357  0.0019
   15PEO   H0B610010   8.076   0.276   5.143 -1.2622  1.5516  2.2267
   15PEO   O0B710011   8.038   0.077   5.153  0.2510  0.0376  0.8208
   15PEO   H0B810012   7.851   0.173   5.159 -1.6467  1.2160  1.6724
   15PEO   H0B910013   7.912   0.108   5.312  0.4397  0.7574 -0.2758
   15PEO   C0BA10014   7.900   0.086   5.205 -0.0387  1.0154 -0.2786
   15PEO   C0BB10015   7.816  -0.039   5.175 -0.0945  0.4734  0.5435
   15PEO   H0BC10016   7.717  -0.032   5.223 -0.2374  2.8999  0.0518
   15PEO   H0BD10017   7.794  -0.059   5.069 -0.7112 -3.7069  1.3086
   15PEO   O0BE10018   7.893  -0.150   5.219  0.6598  0.3801  0.3187
   15PEO   H0BF10019   7.819  -0.331   5.126 -0.2889 -2.1067  0.7232
   15PEO   H0C010020   7.719  -0.262   5.260  0.7601  0.8504  0.8224
   15PEO   C0C110021   7.822  -0.277   5.222  0.2077 -0.1605 -0.3429
   15PEO   C0C210022   7.899  -0.368   5.318  0.1012  0.3386  0.1272
   15PEO   H0C310023   7.839  -0.460   5.311 -0.7853  1.0084 -2.5252
   15PEO   H0C410024   7.999  -0.398   5.284  0.9628  0.6423  2.2570
   15PEO   O0C510025   7.902  -0.330   5.457 -0.2214 -0.0415  0.0595
   15PEO   H0C610026   8.022  -0.500   5.478 -1.0990 -2.5055  0.5339
   15PEO   H0C710027   7.865  -0.514   5.558  0.5210  0.2110  0.3869
   15PEO   C0C810028   7.946  -0.444   5.535  0.3974  0.2336  0.0117
   15PEO   C0C910029   8.010  -0.390   5.666  0.4929  0.6076 -0.3508
   15PEO   H0CA10030   8.076  -0.455   5.724  1.4788  3.0890  1.5031
   15PEO   H0CB10031   8.072  -0.302   5.644 -2.0599  2.5252 -0.3809
   15PEO   O0CC10032   7.890  -0.356   5.751  0.5182  0.3454  0.0644
   15PEO   H0CD10033   8.000  -0.229   5.877 -1.6610  1.6478  0.3584
   15PEO   H0CE10034   7.968  -0.395   5.943  3.2214  0.8857 -0.7135
   15PEO   C0CF10035   7.926  -0.310   5.886  0.1495 -0.1645 -0.2271
   15PEO   C0D010036   7.805  -0.238   5.946  0.5443 -0.7043  0.7332
   15PEO   H0D110037   7.835  -0.200   6.044  0.2084  1.0395  0.2113
   15PEO   H0D210038   7.788  -0.148   5.884  1.3011 -1.1684 -0.1822
   15PEO   O0D310039   7.687  -0.321   5.955 -0.7169  0.3643  0.2904
   15PEO   H0D410040   7.623  -0.308   5.765 -0.0355 -0.2026  0.5907
   15PEO   H0D510041   7.552  -0.180   5.868  0.5909  0.6107 -0.2546
   15PEO   C0D610042   7.580  -0.286   5.864 -0.2480  0.3529  0.3789
   15PEO   C0D710043   7.460  -0.381   5.894  0.3825 -0.1190  0.1250
   15PEO   H0D810044   7.403  -0.397   5.801 -0.5468 -0.0203  0.6706
   15PEO   H0D910045   7.497  -0.478   5.929  1.1660 -0.1123 -0.6642
   15PEO   O0DA10046   7.380  -0.313   5.992  0.4489 -0.8602 -0.1903
   15PEO   H0DB10047   7.304  -0.479   6.080  2.1728  0.0966 -2.3942
   15PEO   H0DC10048   7.206  -0.412   5.953 -0.6375  1.5414 -0.0855
   15PEO   C0DD10049   7.269  -0.383   6.038 -0.1471  0.3645 -0.0374
   15PEO   C0DE10050   7.197  -0.302   6.143  0.1488  0.2883 -0.5047
   15PEO   H0DF10051   7.114  -0.359   6.187 -0.7792  1.4106 -0.7503
   15PEO   H0E010052   7.276  -0.277   6.215 -0.3479  1.0306 -0.2064
   15PEO   O0E110053   7.136  -0.184   6.086 -0.7557  0.0998 -0.0806
   15PEO   H0E210054   7.143  -0.101   6.272 -0.2574 -0.2741  0.9081
   15PEO   H0E310055   6.986  -0.169   6.208  1.0158 -1.4188 -1.9246
   15PEO   C0E410056   7.076  -0.110   6.185  0.5960  0.1290  0.1829
   15PEO   C0E510057   7.037   0.040   6.145 -0.4500  0.1828  0.3138
   15PEO   H0E610058   6.991   0.085   6.234  0.0560 -0.7627  1.0682
   15PEO   H0E710059   7.117   0.112   6.124 -0.7790  1.1476  2.1564
   15PEO   O0E810060   6.941   0.032   6.042  0.5389  0.8041 -0.0402
   15PEO   H0E910061   6.940   0.231   5.986 -1.0996  1.8163  1.1541
   15PEO   H0EA10062   6.820   0.187   6.109 -0.3627  0.7859 -0.6746
   15PEO   C0EB10063   6.869   0.153   6.016  0.1977  0.0676 -0.1210
   15PEO   C0EC10064   6.770   0.126   5.899  0.0213 -0.4018  0.0404
   15PEO   H0ED10065   6.731   0.024   5.910  2.1371 -1.3279 -0.5083
   15PEO   H0EE10066   6.687   0.195   5.917 -2.3319 -2.7885 -1.0595
   15PEO   O0EF10067   6.818   0.143   5.770 -0.0687 -0.5201  0.2111
   15PEO   H0F010068   6.667   0.287   5.727 -0.3967  0.8617 -1.0906
   15PEO   H0F110069   6.645   0.130   5.646  0.1203  0.7832  0.0705
   15PEO   C0F210070   6.720   0.202   5.682  0.2947  0.3456  0.5989
   15PEO   C0F310071   6.799   0.260   5.566  0.2024  0.5636  0.2981
   15PEO   H0F410072   6.861   0.183   5.518 -0.3482 -0.4163  1.1152
   15PEO   H0F510073   6.719   0.270   5.491 -1.4730 -1.1846  1.7561
   15PEO   O0F610074   6.868   0.389   5.577 -0.1153 -0.8474 -0.2720
   15PEO   H0F710075   7.042   0.322   5.669 -0.0952 -0.5514 -0.0424
   15PEO   H0F810076   6.924   0.388   5.782  0.4038  1.9998  0.3677
   15PEO   C0F910077   6.968   0.402   5.683  0.0737 -0.3708 -0.1776
   15PEO   C0FA10078   7.020   0.549   5.671  0.0101 -0.0904  0.3668
   15PEO   H0FB10079   6.935   0.617   5.654  1.0957  1.0218 -0.8978
   15PEO   H0FC10080   7.068   0.592   5.759  3.1567  0.7025 -1.5776
   15PEO   O0FD10081   7.104   0.560   5.549 -0.0870  0.4386  0.3635
   15PEO   H0FE10082   7.160   0.765   5.561  2.6342  1.9387 -0.1885
   15PEO   H0FF10083   7.253   0.663   5.456 -0.4475 -1.4881  0.1777
   15PEO   C10010084   7.203   0.664   5.554 -0.9163  0.2294 -0.0429
   15PEO   C10110085   7.321   0.659   5.662 -0.3779 -0.3113  0.3921
   15PEO   H10210086   7.401   0.721   5.618 -0.3580  0.2065  1.1497
   15PEO   H10310087   7.296   0.685   5.765 -2.0834 -1.1552  0.2160
   15PEO   O10410088   7.375   0.528   5.654 -0.0675  0.5710 -0.3756
   15PEO   H10510089   7.458   0.507   5.854  1.3606 -1.6392  0.9781
   15PEO   H10610090   7.576   0.566   5.741  0.8466 -1.2075 -0.2803
   15PEO   C10710091   7.488   0.500   5.749 -0.4664  0.5232  0.2251
   15PEO   C10810092   7.527   0.349   5.731 -0.5980 -0.0925 -0.0751
   15PEO   H10910093   7.542   0.324   5.625  0.2076 -0.6858  0.1651
   15PEO   H10A10094   7.625   0.329   5.777 -0.0444 -1.4155 -1.7285
   15PEO   O10B10095   7.426   0.273   5.796 -0.0793  0.0241 -0.2470
   15PEO   H10C10096   7.555   0.136   5.905  1.6712 -1.8012 -1.6831
   15PEO   H10D10097   7.532   0.104   5.741 -0.2556  0.3173 -0.3781
   15PEO   C10E10098   7.478   0.145   5.828  0.1579  0.2048 -0.0647
   15PEO   C10F10099   7.355   0.056   5.860  0.4782 -0.5815 -0.2680
   15PEO   H11010100   7.394  -0.039   5.900 -0.0445 -0.6755  0.0222
   15PEO   H11110101   7.291   0.095   5.940 -0.2948 -1.4610 -0.4370
   15PEO   O11210102   7.288   0.018   5.743  0.8481 -0.3324  0.2421
   15PEO   H11310103   7.101   0.007   5.842 -0.5349 -0.2491  0.3505
   15PEO   H11410104   7.194  -0.134   5.845 -0.3739  1.7257  2.3999
   15PEO   C11510105   7.167  -0.052   5.777  0.2660  0.4562  0.5118
   15PEO   C11610106   7.106  -0.114   5.647  0.1880 -0.6120 -0.2804
   15PEO   H11710107   7.004  -0.130   5.684  1.4248  1.0291  4.6528
   15PEO   H11810108   7.116  -0.039   5.567  3.1591  1.0320  1.4467
   15PEO   O11910109   7.182  -0.231   5.619  0.5055 -0.2559  0.1173
   15PEO   H11A10110   7.103  -0.225   5.427  3.2387  0.6546 -0.2373
   15PEO   H11B10111   7.042  -0.362   5.541  1.3514 -0.2297  0.6721
   15PEO   C11C10112   7.126  -0.301   5.503  0.8080  0.1725  0.1008
   15PEO   C11D10113   7.248  -0.385   5.460 -0.0620 -0.5178  0.2686
   15PEO   H11E10114   7.292  -0.435   5.548  0.7797 -2.5314 -1.2298
   15PEO   H11F10115   7.224  -0.468   5.393 -1.4732  0.1698 -0.1211
   15PEO   O12010116   7.354  -0.302   5.387 -0.3185 -0.1518 -0.2722
   15PEO   H12110117   7.553  -0.243   5.371  2.5034  5.8268  3.0105
   15PEO   H12210118   7.511  -0.346   5.518 -1.2130 -1.3963 -0.8558
   15PEO   C12310119   7.481  -0.264   5.452 -0.2757 -0.6230 -0.3392
   15PEO   C12410120   7.466  -0.129   5.530 -0.8709 -0.0337  0.3144
   15PEO   H12510121   7.380  -0.081   5.480 -0.5386 -1.7410 -2.0585
   15PEO   H12610122   7.445  -0.150   5.637 -0.1681 -1.8401  0.1352
   15PEO   O12710123   7.583  -0.043   5.512  0.0649 -0.3619 -0.2338
   15PEO   H12810124   7.720  -0.186   5.573  0.9495 -0.6262  1.6283
   15PEO   H12910125   7.658  -0.070   5.700  0.1637 -0.2229 -0.2910
   15PEO   C12A10126   7.688  -0.084   5.595 -0.5981 -0.6075 -0.4627
   15PEO   C12B10127   7.816  -0.009   5.561  0.4747  0.2625 -0.5313
   15PEO   H12C10128   7.896  -0.038   5.630  0.6683  2.0187  0.0397
   15PEO   H12D10129   7.851  -0.022   5.457  1.3263  1.4777 -0.4212
   15PEO   O12E10130   7.804   0.132   5.598  0.1742  0.2775 -0.3991
   15PEO   H12F10131   8.006   0.174   5.562  1.4313  2.7120  0.4823
   15PEO   H13010132   7.948   0.235   5.708  0.6197  2.2690 -1.3811
   15PEO   C13110133   7.914   0.218   5.604 -0.4433  0.2181 -0.7536
   15PEO   C13210134   7.885   0.348   5.519  0.0307 -0.0090  0.0357
   15PEO   H13310135   7.974   0.377   5.461  0.4594  0.4195  0.8754
   15PEO   H13410136   7.813   0.323   5.440  0.2133 -0.1704 -0.0821
   15PEO   O13510137   7.843   0.457   5.615 -0.8634  0.0645  0.3661
   15PEO   H13610138   8.025   0.550   5.602  0.0754  2.1383  1.0276
   15PEO   H13710139   8.001   0.469   5.757  0.9708  1.2267  0.5987
   15PEO   C13810140   7.950   0.527   5.679 -0.3560 -0.7793 -0.1160
   15PEO   C13910141   7.910   0.662   5.734 -0.0235 -0.3026 -1.1881
   15PEO   H13A10142   7.817   0.648   5.792  0.4393  1.0661 -0.0484
   15PEO   H13B10143   7.995   0.698   5.793 -0.4754  1.3252 -1.4887
   15PEO   O13C10144   7.900   0.748   5.627  0.1697  0.4982 -0.4879
   15PEO   H13D10145   7.690   0.731   5.625  0.2201 -2.3534 -0.7537
   15PEO   H13E10146   7.779   0.674   5.475 -0.0395 -2.3456  0.2770
   15PEO   C13F10147   7.775   0.747   5.557 -0.3124 -0.7655 -1.0848
   15PEO   C14010148   7.755   0.891   5.505  0.3366 -0.2452 -1.4222
   15PEO   H14110149   7.851   0.929   5.469 -0.7942  1.5050 -2.7747
   15PEO   H14210150   7.682   0.909   5.425  0.4913 -1.3087 -1.8123
   15PEO   O14310151   7.702   0.980   5.606  0.4407 -0.0607 -0.0894
   15PEO   H14410152   7.706   1.161   5.691 -0.0292 -1.0417  0.8378
   15PEO   H14510153   7.762   1.155   5.520 -0.2542  0.9459  0.0540
   15PEO   C14610154   7.766   1.106   5.618  0.1729  0.4771 -0.1972
   15PEO   C14710155   7.904   1.090   5.683 -0.0385  0.1278  0.3539
   15PEO   H14810156   7.956   1.027   5.610 -1.0140  1.6897 -1.8106
   15PEO   H14910157   7.947   1.191   5.672  1.3516 -0.6094 -1.4316
   15PEO   O14A10158   7.881   1.043   5.815 -0.4145  0.0070  0.6094
   15PEO   H14B10159   8.052   1.111   5.895  2.6822 -1.4730 -0.4986
   15PEO   H14C10160   8.066   0.945   5.842  2.8853  1.3479  1.5225
   15PEO   C14D10161   7.996   1.017   5.888  0.2257 -0.1416  0.0851
   15PEO   C14E10162   7.968   0.959   6.024 -0.5731  0.0314  0.6472
   15PEO   H14F10163   7.897   0.877   6.006  1.3242 -1.7951  1.0220
   15PEO   H15010164   8.058   0.912   6.067  0.9085  2.2327  0.0807
   15PEO   O15110165   7.908   1.057   6.107  0.3456  0.8740 -0.3747
   15PEO   H15210166   8.103   1.141   6.114  0.8263  0.2975  0.4718
   15PEO   H15310167   8.043   1.088   6.266 -0.7526  0.4187 -0.7764
   15PEO   C15410168   8.010   1.136   6.173 -0.3506 -0.4581 -1.3799
   15PEO   C15510169   7.959   1.277   6.201  1.0242 -0.3037 -0.2814
   15PEO   H15610170   8.048   1.340   6.218  2.2626 -1.7353 -1.1487
   15PEO   H15710171   7.936   1.313   6.100  0.9550  1.4688  0.3245
   15PEO   O15810172   7.864   1.289   6.309  0.0136 -0.5761  0.0154
   15PEO   H15910173   7.726   1.417   6.248  0.8212 -0.3201 -0.9339
   15PEO   H15A10174   7.888   1.494   6.289 -0.4409  0.6163 -0.0024
   15PEO   C15B10175   7.810   1.422   6.318  0.0852  0.0181 -0.0615
   15PEO   C15C10176   7.760   1.452   6.462  0.8178  0.1375 -0.0925
   15PEO   H15D10177   7.676   1.522   6.452  1.5693  1.0391 -0.3044
   15PEO   H15E10178   7.728   1.360   6.512  1.5310  0.4821  1.0381
   15PEO   O15F10179   7.863   1.497   6.547  0.1764 -0.5303  0.1377
   15PEO   H16010180   8.034   1.408   6.475 -0.8637 -2.2262 -0.1577
   15PEO   H16110181   7.948   1.311   6.582 -2.4680  1.2965  0.0989
   15PEO   C16210182   7.977   1.416   6.569  0.0914  0.6743  0.2900
   15PEO   C16310183   8.052   1.473   6.689 -0.7129  0.2040 -0.2131
   15PEO   H16410184   7.986   1.479   6.777  1.1401 -1.6088  1.4007
   15PEO   H16510185   8.129   1.403   6.725 -1.1980  0.5049  1.4579
   15PEO   O16610186   8.087   1.598   6.633  0.1655 -0.4287  0.8222
   15PEO   H16710187   8.153   1.672   6.822  1.1451 -2.2029 -0.3493
   15PEO   H16810188   8.175   1.788   6.681  0.0821 -0.3872 -3.3661
   15PEO   C16910189   8.173   1.683   6.714 -0.4124  0.4401 -0.4440
   15PEO   C16A10190   8.327   1.658   6.708 -0.7027  1.0455 -0.2438
   15PEO   H16B10191   8.357   1.702   6.612  0.9948  0.8772  0.1919
   15PEO   H16C10192   8.373   1.716   6.789 -0.3542 -1.6989  1.6346
   15PEO   O16D10193   8.360   1.520   6.717  0.9200  0.6771  0.2460
   15PEO   H16E10194   8.485   1.490   6.547 -2.4832 -0.2592 -0.8531
   15PEO   H16F10195   8.499   1.377   6.680  0.9641  0.7909  1.3025
   15PEO   C17010196   8.485   1.483   6.657  0.6220  0.3417 -0.7260
   15PEO   C17110197   8.597   1.557   6.731 -0.0448 -0.6222  0.3393
   15PEO   H17210198   8.575   1.565   6.838  0.1954  1.7506  0.2659
   15PEO   H17310199   8.681   1.488   6.713  1.8851  1.9893 -1.5208
   15PEO   O17410200   8.634   1.676   6.656  0.7941 -0.1428  0.0387
   15PEO   H17510201   8.838   1.720   6.716 -0.2075 -1.4650 -0.6394
   15PEO   H17610202   8.720   1.746   6.836  0.1728  1.0910  0.5990
   15PEO   C17710203   8.734   1.754   6.728  0.2956 -0.2548  0.4989
   15PEO   C17810204   8.711   1.904   6.687 -0.0107 -0.2582  0.0728
   15PEO   H17910205   8.791   1.940   6.621  0.5908  0.7756  1.3374
   15PEO   H17A10206   8.621   1.899   6.623  0.1731  2.7238 -0.5767
   15PEO   O17B10207   8.687   1.992   6.799  0.0617  0.3854  0.4565
   15PEO   H17C10208   8.491   1.933   6.855 -0.9364  1.6120  2.7792
   15PEO   H17D10209   8.491   2.045   6.723 -2.1778  0.6009  1.2129
   15PEO   C17E10210   8.547   2.017   6.813 -0.4171 -0.0142 -0.0248
   15PEO   C17F10211   8.535   2.148   6.906  0.1780 -0.8103 -0.4344
   15PEO   H18010212   8.610   2.225   6.883 -0.2434 -0.7118 -1.5480
   15PEO   H18110213   8.444   2.203   6.879  1.8042  2.5452  0.2544
   15PEO   O18210214   8.549   2.122   7.045 -0.4047 -0.2648 -0.1116
   15PEO   H18310215   8.454   2.307   7.099  2.1753  0.2646  0.4621
   15PEO   H18410216   8.528   2.210   7.232  0.0605  2.1514  0.8871
   15PEO   C18510217   8.472   2.206   7.137  0.3069  0.0168  0.7872
   15PEO   C18610218   8.346   2.126   7.152  0.9268 -0.6602 -0.0754
   15PEO   H18710219   8.371   2.025   7.186  0.1472 -2.2439 -3.7182
   15PEO   H18810220   8.290   2.171   7.235 -1.4732 -2.2392 -0.7348
   15PEO   O18910221   8.271   2.125   7.032 -0.3326  0.0020 -0.8319
   15PEO   H18A10222   8.084   2.041   7.094 -1.0721 -0.1913 -1.8120
   15PEO   H18B10223   8.219   1.927   7.038  0.2975  0.2609  0.6553
   15PEO   C18C10224   8.168   2.023   7.024  0.2123  0.0780 -0.3894
   15PEO   C18D10225   8.120   2.042   6.879 -0.4183  0.4169 -0.4112
   15PEO   H18E10226   8.038   1.972   6.856 -0.3040 -0.2771  1.1360
   15PEO   H18F10227   8.089   2.143   6.849 -0.4071  0.8911  1.0760
   15PEO   O19010228   8.225   2.015   6.779  0.6684  0.2459 -0.0584
   15PEO   H19110229   8.173   2.144   6.629 -0.4999 -0.4685  0.4664
   15PEO   H19210230   8.102   1.979   6.617 -0.1067  0.7047 -3.8063
   15PEO   C19310231   8.190   2.037   6.649 -0.3302 -0.6038 -0.3683
   15PEO   C19410232   8.305   2.005   6.549 -0.5720  0.5264  0.2450
   15PEO   H19510233   8.371   2.093   6.544 -0.2020  0.2191 -0.3830
   15PEO   H19610234   8.363   1.918   6.584  0.0426 -0.4059 -2.7744
   15PEO   O19710235   8.231   1.968   6.431  0.1005 -0.1460  0.4254
   15PEO   H19810236   8.258   1.867   6.239 -2.6886 -1.5847  2.7441
   15PEO   H19910237   8.390   1.831   6.355 -1.2595 -0.5916  2.7872
   15PEO   C19A10238   8.315   1.906   6.325  0.2899  0.0625  0.2141
   15PEO   C19B10239   8.398   2.009   6.261  0.1883 -0.2280  1.2780
   15PEO   H19C10240   8.427   1.977   6.161  0.4950  2.0255  0.5965
   15PEO   H19D10241   8.327   2.092   6.250 -0.7355 -1.2873 -1.7519
   15PEO   O19E10242   8.504   2.048   6.345 -0.4389 -0.3027  0.2716
   15PEO   H19F10243   8.535   2.222   6.226 -1.7269 -0.1207 -0.0144
   15PEO   H1A010244   8.651   2.090   6.213 -1.2896 -1.6180  0.8669
   15PEO   C1A110245   8.590   2.147   6.285 -0.8663  0.3164 -0.2387
   15PEO   C1A210246   8.689   2.200   6.395  0.7716 -0.3646 -0.6249
   15PEO   H1A310247   8.714   2.112   6.456  0.1455  0.1830  0.4429
   15PEO   H1A410248   8.785   2.234   6.354  0.2223  0.5970 -1.1547
   15PEO   O1A510249   8.621   2.305   6.471 -0.2101  0.2755  0.0968
   15PEO   H1A610250   8.743   2.250   6.641 -0.5104 -0.8293  1.2075
   15PEO   H1A710251   8.606   2.345   6.671  1.4149 -1.8387  1.4561
   15PEO   C1A810252   8.686   2.333   6.597  0.2770 -0.8924  0.0157
   15PEO   C1A910253   8.772   2.459   6.587  0.0865  0.7315 -0.3957
   15PEO   H1AA10254   8.837   2.465   6.675 -1.7818 -1.2145  1.2263
   15PEO   H1AB10255   8.841   2.452   6.501 -0.2281 -2.2946 -0.5301
   15PEO   O1AC10256   8.678   2.566   6.571  0.1222  0.3647 -0.7722
   15PEO   H1AD10257   8.801   2.684   6.446 -2.6060  0.7615 -0.8267
   15PEO   H1AE10258   8.811   2.702   6.624  0.3875 -0.2353 -0.2123
   15PEO   C1AF10259   8.743   2.685   6.540 -0.5367 -0.3729  0.5441
   15PEO   C1B010260   8.655   2.812   6.540 -0.3607 -0.6205  0.2420
   15PEO   H1B110261   8.602   2.809   6.636  0.8577 -2.3009  0.9230
   15PEO   H1B210262   8.719   2.901   6.527  0.8617 -1.6227 -0.8417
   15PEO   O1B310263   8.562   2.805   6.429  0.3107  0.3733 -0.9240
   15PEO   H1B410264   8.559   3.023   6.426 -1.9699  1.8265  0.2933
   15PEO   H1B510265   8.400   2.936   6.441 -0.6052  1.7960 -0.1300
   15PEO   C1B610266   8.501   2.934   6.397 -0.2526  0.5286  0.6840
   15PEO   C1B710267   8.468   2.934   6.247  0.3519 -1.2171 -0.6020
   15PEO   H1B810268   8.457   2.831   6.209  0.7177 -1.9395  1.1273
   15PEO   H1B910269   8.373   2.984   6.222  0.4222 -0.0192  1.3238
   15PEO   O1BA10270   8.572   3.010   6.180  0.3973 -0.0800 -0.0502
   15PEO   H1BB10271   8.673   2.843   6.138 -0.6051  0.0261  0.6057
   15PEO   H1BC10272   8.721   2.912   6.295  0.3900  0.2615 -0.5952
   15PEO   C1BD10273   8.691   2.937   6.192 -0.8337  0.5395 -0.1894
   15PEO   C1BE10274   8.809   3.009   6.125 -0.5291 -0.2316 -0.1536
   15PEO   H1BF10275   8.876   2.925   6.100  0.3944  0.4402 -0.0131
   15PEO   H1C010276   8.786   3.064   6.033  1.6917 -0.9799 -1.2227
   15PEO   O1C110277   8.875   3.092   6.222  0.5808  0.3412  0.6132
   15PEO   H1C210278   8.744   3.255   6.267 -0.2427  1.0680 -2.0705
   15PEO   H1C310279   8.838   3.273   6.117 -1.2648 -0.2385  0.1102
   15PEO   C1C410280   8.839   3.228   6.217  0.6239 -0.2392  0.1355
   15PEO   C1C510281   8.946   3.312   6.295 -0.8639 -0.1831  0.3134
   15PEO   H1C610282   8.918   3.418   6.286  0.0059  0.2002  1.7300
   15PEO   H1C710283   8.949   3.275   6.399  0.4909 -1.4220 -0.1346
   15PEO   O1C810284   9.079   3.295   6.247 -0.0239 -0.0543 -0.5253
   15PEO   H1C910285   9.074   3.423   6.083 -2.2111  0.4005  2.6606
   15PEO   H1CA10286   9.066   3.245   6.049  2.7965 -0.3360 -0.5702
   15PEO   C1CB10287   9.113   3.324   6.111  0.0120  0.5662  0.5384
   15PEO   C1CC10288   9.266   3.302   6.069 -0.3214 -0.4711  0.0586
   15PEO   H1CD10289   9.287   3.194   6.077  0.3044 -0.2372  1.8826
   15PEO   H1CE10290   9.284   3.328   5.963  0.7632  0.2820  0.4073
   15PEO   O1CF10291   9.348   3.366   6.172  0.3419 -0.1060 -0.5936
   15PEO   H1D010292   9.505   3.419   6.051 -1.2160  3.2984  1.3017
   15PEO   H1D110293   9.530   3.265   6.140 -0.2663  0.8422 -1.5293
   15PEO   C1D210294   9.488   3.366   6.146 -1.1385  0.4214 -0.1650
   15PEO   C1D310295   9.561   3.445   6.252  0.0786 -0.6061 -0.7940
   15PEO   H1D410296   9.527   3.398   6.346 -0.1179  1.8114  0.4194
   15PEO   H1D510297   9.670   3.437   6.243  0.2508  1.6269 -1.2296
   15PEO   O1D610298   9.525   3.589   6.248 -0.2105  0.2889  0.0454
   15PEO   H1D710299   9.594   3.779   6.319  1.9724 -0.3066  1.2910
   15PEO   H1D810300   9.708   3.661   6.317 -0.6573 -0.9723 -1.3315
   15PEO   C1D910301   9.600   3.671   6.338 -0.2820 -0.6082  0.6244
   15PEO   C1DA10302   9.569   3.645   6.489 -0.8898 -0.2828  0.4421
   15PEO   H1DB10303   9.605   3.736   6.540  0.7214 -0.2367 -0.6828
   15PEO   H1DC10304   9.462   3.637   6.514 -0.8409  1.1767  1.2131
   15PEO   O1DD10305   9.639   3.534   6.534  0.0499  1.3554 -0.3082
   15PEO   H1DE10306   9.778   3.654   6.620 -0.2103  0.9343 -0.9880
   15PEO   H1DF10307   9.830   3.481   6.604 -0.0195 -0.8459 -0.7848
   15PEO   C1E010308   9.746   3.549   6.625  1.1914  0.5130 -0.2031
   15PEO   C1E110309   9.697   3.521   6.769  0.3633 -0.0593  0.6675
   15PEO   H1E210310   9.769   3.539   6.850 -0.4707  2.2787  0.9596
   15PEO   H1E310311   9.619   3.595   6.790  0.6386  0.2462  0.6191
   15PEO   O1E410312   9.647   3.388   6.772  0.0041  0.1794  0.4133
   15PEO   H1E510313   9.457   3.318   6.845 -0.5296  1.9492 -0.1254
   15PEO   H1E610314   9.515   3.457   6.919  1.7532  0.4533  0.2464
   15PEO   C1E710315   9.552   3.362   6.879  0.2722 -0.4871  1.0096
   15PEO   C1E810316   9.611   3.276   6.984  1.5159  0.8158  0.2287
   15PEO   H1E910317   9.526   3.243   7.046  1.2698  0.0369 -0.5050
   15PEO   H1EA10318   9.666   3.188   6.949  1.2702  0.8782 -0.3279
   15PEO   O1EB10319   9.693   3.360   7.065 -0.0939 -0.2658  1.0497
   15PEO   H1EC10320   9.587   3.378   7.245 -1.1675 -2.4282 -1.1293
   15PEO   H1ED10321   9.538   3.496   7.121  0.5925 -0.2099  0.2602
   15PEO   C1EE10322   9.624   3.442   7.163  0.0132 -0.9830  0.4769
   15PEO   C1EF10323   9.732   3.540   7.210 -0.2750  0.2646 -0.5106
   15PEO   H1F010324   9.712   3.587   7.307  1.3479 -1.5269  0.7606
   15PEO   H1F110325   9.817   3.471   7.220 -0.0489  0.7001  0.6634
   15PEO   O1F210326   9.738   3.637   7.104 -0.4326 -0.0468 -0.0795
   15PEO   H1F310327   9.936   3.630   7.030 -1.0285  0.3336 -1.0937
   15PEO   H1F410328   9.924   3.693   7.180  1.0804  0.1401 -0.5571
   15PEO   C1F510329   9.867   3.694   7.086 -0.1315  0.2485  0.1609
   15PEO   C1F610330   9.844   3.833   7.032 -0.4394  0.7726 -0.4020
   15PEO   H1F710331   9.780   3.892   7.098  1.2199  2.5983 -0.3279
   15PEO   H1F810332   9.940   3.885   7.015 -1.1609  1.7211 -1.7586
   15PEO   O1F910333   9.781   3.818   6.904 -0.2115 -0.0358 -0.0650
   15PEO   H1FA10334   9.872   4.004   6.875  0.1800 -1.3834  2.3846
   15PEO   H1FB10335   9.699   4.006   6.899 -0.1839  0.5793 -0.5982
   15PEO   C1FC10336   9.780   3.947   6.852 -0.1689 -0.0642  0.2246
   15PEO   C1FD10337   9.771   3.932   6.706 -0.2482 -0.2068  0.1218
   15PEO   H1FE10338   9.690   3.861   6.681 -1.3654  0.8796  0.5685
   15PEO   H1FF10339   9.748   4.031   6.664  2.5957 -0.6996 -3.1121
   15PEO   O20010340   9.893   3.879   6.650  0.3133 -0.1236 -0.6057
   15PEO   H20110341   9.881   3.961   6.457  1.7850  0.4608  0.2997
   15PEO   H20210342   9.790   3.801   6.480  1.1712 -1.0127 -3.5161
   15PEO   C20310343   9.878   3.862   6.506 -0.5895  0.3391  0.0392
   15PEO   C20410344  10.011   3.784   6.472 -0.2243 -0.3119 -0.4484
   15PEO   H20510345  10.027   3.697   6.537 -0.0775  0.2858  0.3247
   15PEO   H20610346  10.008   3.732   6.375  1.7160  0.2570 -0.8631
   15PEO   O20710347  10.122   3.871   6.464 -0.1795 -0.0292 -0.1931
   15PEO   H20810348  10.247   3.745   6.349 -0.6995  0.5536  0.3739
   15PEO   H20910349  10.284   3.747   6.518 -1.0024 -1.1809 -0.4202
   15PEO   C20A10350  10.257   3.813   6.435  0.1424  0.4051  0.4096
   15PEO   C20B10351  10.357   3.918   6.375 -0.0417  0.4594 -0.7261
   15PEO   H20C10352  10.377   3.984   6.461 -1.5041 -0.9531  0.7569
   15PEO   H20D10353  10.445   3.866   6.334 -0.9881 -1.7226 -0.1152
   15PEO   O20E10354  10.294   3.992   6.270  0.1742  0.1086  0.4215
   15PEO   H20F10355  10.199   3.855   6.141 -1.5584  1.6919  1.3962
   15PEO   H21010356  10.376   3.874   6.118 -0.5306 -0.7471  0.6030
   15PEO   C21110357  10.282   3.927   6.140 -0.1279  0.0817  0.3827
   15PEO   C21210358  10.245   4.027   6.032  0.3719  0.0665 -0.2457
   15PEO   H21310359  10.196   3.975   5.948 -0.6361  1.3850 -0.5014
   15PEO   H21410360  10.178   4.104   6.073 -0.5795 -0.8077 -0.1300
   15PEO   O21510361  10.365   4.088   5.978 -0.0166 -0.1439  0.2710
   15PEO   H21610362  10.401   4.228   6.132 -1.0388 -1.5108  0.8217
   15PEO   H21710363  10.287   4.288   6.017 -1.0451 -0.0687  0.4432
   15PEO   C21810364  10.376   4.225   6.025 -0.2210  1.0785  0.5055
   15PEO   C21910365  10.500   4.287   5.960  0.3431 -0.1771  0.6233
   15PEO   H21A10366  10.528   4.365   6.032  2.3751  0.8461 -1.1778
   15PEO   H21B10367  10.582   4.214   5.946 -0.1993 -0.8593  0.9030
   15PEO   O21C10368  10.447   4.346   5.839  0.2716 -0.1368 -0.5799
   15PEO   H21D10369  10.475   4.541   5.902 -2.2646  0.5601  1.7906
   15PEO   H21E10370  10.298   4.493   5.908  0.6072  0.7085  1.2352
   15PEO   C21F10371  10.395   4.480   5.857 -0.3140 -0.6521 -0.2544
   15PEO   C22010372  10.408   4.536   5.711  0.6935 -0.0597 -1.2585
   15PEO   H22110373  10.407   4.646   5.719  0.9924 -0.1765  0.8254
   15PEO   H22210374  10.510   4.504   5.682  1.8495  0.4046  1.8607
   15PEO   O22310375  10.303   4.479   5.634  0.3414 -1.0429 -0.1733
   15PEO   H22410376  10.338   4.475   5.417  1.9502  1.3294  0.2443
   15PEO   H22510377  10.375   4.630   5.505  0.8906  0.4077  0.2798
   15PEO   C22610378  10.305   4.546   5.495  0.4163  0.8173  0.1051
   15PEO   C22710379  10.162   4.603   5.482 -0.3489  0.2594  0.2379
   15PEO   H22810380  10.120   4.625   5.582 -2.9952 -1.9204 -0.2735
   15PEO   H22910381  10.156   4.694   5.420 -2.2126 -0.9333 -1.4362
   15PEO   O22A10382  10.082   4.504   5.424 -0.2256  0.2327  0.2632
   15PEO   H22B10383  10.077   4.387   5.241  1.3264 -0.8472  0.2564
   15PEO   H22C10384  10.189   4.522   5.237 -0.3283 -1.4515  0.0189
   15PEO   C22D10385  10.092   4.489   5.278 -0.7221 -0.3931 -0.0306
   15PEO   C22E10386   9.981   4.576   5.212 -0.3172 -0.1531  0.8668
   15PEO   H22F10387   9.986   4.677   5.255  3.7575 -0.0912  0.5785
   15PEO   H23010388   9.994   4.576   5.102  0.6472  1.2064  0.9523
   15PEO   O23110389   9.857   4.502   5.229  0.9191  0.2049  0.7665
   15PEO   H23210390   9.748   4.690   5.192 -1.0203 -0.0078  1.1102
   15PEO   H23310391   9.663   4.555   5.250 -0.3367 -3.4921 -1.3334
   15PEO   C23410392   9.743   4.581   5.179  0.4068 -0.0355  0.5454
   15PEO   C23510393   9.712   4.546   5.035  0.7624  0.1183  0.1645
   15PEO   H23610394   9.733   4.441   5.010 -0.5921 -0.3191  0.7808
   15PEO   H23710395   9.608   4.565   5.004  0.6213 -0.7936  0.0374
   15PEO   O23810396   9.782   4.628   4.950 -0.5286 -0.1976  0.1813
   15PEO   H23910397   9.723   4.599   4.751  1.3285  3.7028 -0.5727
   15PEO   H23A10398   9.831   4.473   4.816 -2.6526 -1.0865 -2.0314
   15PEO   C23B10399   9.808   4.581   4.819  0.7539 -0.2650 -0.6714
   15PEO   C23C10400   9.928   4.665   4.767 -0.2423  0.5347  0.4456
   15PEO   H23D10401   9.930   4.649   4.658  1.6786 -1.7041  0.7260
   15PEO   H23E10402   9.913   4.769   4.797  0.1873  0.8140 -0.3018
   15PEO   O23F10403  10.042   4.613   4.835 -0.4482  0.5819 -0.0222
   15PEO   H24010404  10.182   4.755   4.773  0.8254  0.8058  0.6428
   15PEO   H24110405  10.144   4.615   4.661  0.5748  0.7608  0.7763
   15PEO   C24210406  10.161   4.647   4.765  0.4223  0.8759  0.7660
   15PEO   C24310407  10.279   4.562   4.822  0.1372 -0.1702  0.0105
   15PEO   H24410408  10.366   4.582   4.757  0.1628  3.5108  0.9579
   15PEO   H24510409  10.300   4.588   4.927 -0.1996  1.9441 -0.3950
   15PEO   O24610410  10.243   4.425   4.810  0.1612 -0.5771 -0.1672
   15PEO   H24710411  10.417   4.307   4.785 -0.1115  2.1598 -0.6321
   15PEO   H24810412  10.260   4.225   4.829 -1.6163  0.4536  0.0275
   15PEO   C24910413  10.324   4.314   4.843 -0.2737 -0.3936 -0.4564
   15PEO   C24A10414  10.349   4.323   4.999  0.6535 -0.3001 -0.3462
   15PEO   H24B10415  10.256   4.362   5.042  0.1432 -1.0041 -0.7921
   15PEO   H24C10416  10.381   4.227   5.043 -0.4015  0.7356  2.9288
   15PEO   O24D10417  10.458   4.414   5.019  0.6153 -0.5122 -0.5102
   15PEO   H24E10418  10.520   4.354   5.201  1.2707  1.0770 -0.3018
   15PEO   H24F10419  10.408   4.499   5.203 -0.8803 -1.8229  1.6089
   15PEO   C25010420  10.487   4.445   5.148 -0.1085  0.7596 -0.0148
   15PEO   C25110421  10.618   4.533   5.142 -0.3562  0.4678  0.3246
   15PEO   H25210422  10.636   4.562   5.038 -0.8272  1.0755  0.4068
   15PEO   H25310423  10.600   4.623   5.202  0.5532 -0.2600  1.7388
   15PEO   O25410424  10.723   4.448   5.201 -0.2964 -0.1982 -0.0830
   15PEO   H25510425  10.910   4.471   5.311 -0.9604 -2.7839 -0.4383
   15PEO   H25610426  10.815   4.618   5.275 -0.0202 -1.0396  2.1449
   15PEO   C25710427  10.844   4.519   5.237  0.7506  0.0249 -0.2345
   15PEO   C25810428  10.935   4.552   5.119 -1.0037  0.1173  0.4803
   15PEO   H25910429  10.875   4.608   5.046  0.1008  0.9615  0.1939
   15PEO   H25A10430  11.025   4.611   5.142 -0.5852 -0.5700  0.6396
   15PEO   O25B10431  10.977   4.423   5.052  0.2314 -0.1016 -0.7780
   15PEO   H25C10432  11.149   4.502   4.979 -0.9419  1.1706 -0.4039
   15PEO   H25D10433  11.026   4.483   4.853  0.0182  0.7657  0.4127
   15PEO   C25E10434  11.068   4.436   4.944 -0.3332  0.0604  0.2193
   15PEO   C25F10435  11.128   4.296   4.926  0.3929  0.1045 -0.0813
   15PEO   H26010436  11.060   4.211   4.933  1.7748 -0.9822  0.7669
   15PEO   H26110437  11.151   4.296   4.818  0.5909 -1.3151 -0.0504
   15PEO   O26210438  11.245   4.266   5.005  0.6826  0.3008  0.1105
   15PEO   H26310439  11.134   4.201   5.167 -0.9073 -1.3587 -1.7392
   15PEO   H26410440  11.212   4.363   5.178  1.4459  0.0196  0.1924
   15PEO   C26510441  11.225   4.259   5.146 -0.8689 -0.4646  0.6097
   15PEO   C26610442  11.351   4.188   5.206 -0.2345  0.7526 -0.1424
   15PEO   H26710443  11.436   4.235   5.155 -0.3900 -0.0544 -1.1751
   15PEO   H26810444  11.350   4.219   5.311  1.4678  1.7259 -0.3782
   15PEO   O26910445  11.351   4.042   5.175  0.2392  0.2885  0.0656
   15PEO   H26A10446  11.410   3.861   5.271 -0.7912  1.0837 -0.4580
   15PEO   H26B10447  11.500   4.001   5.318  0.9654  2.3357 -1.1455
   15PEO   C26C10448  11.453   3.954   5.231 -0.0400  0.9728  0.0675
   15PEO   C26D10449  11.547   3.909   5.121 -0.2932 -0.1222  0.2456
   15PEO   H26E10450  11.625   3.840   5.158  1.8121  1.9953 -0.0076
   15PEO   H26F10451  11.492   3.864   5.038 -4.1366  3.7225  0.3404
   15PEO   O27010452  11.609   4.039   5.086 -0.4283 -0.2207 -0.4971
   15PEO   H27110453  11.592   4.029   4.879  2.0701 -0.6479 -0.9789
   15PEO   H27210454  11.727   3.934   4.945 -1.9894 -0.5326 -3.7166
   15PEO   C27310455  11.670   4.027   4.957  0.7820  0.9359  0.4228
   15PEO   C27410456  11.753   4.151   4.932 -0.7741 -0.3571 -0.1000
   15PEO   H27510457  11.814   4.125   4.845  0.4334  0.9228  0.3191
   15PEO   H27610458  11.687   4.237   4.911 -1.0434 -0.2461  1.0776
   15PEO   O27710459  11.846   4.171   5.041 -0.0916  0.9328 -0.1502
   15PEO   H27810460  11.734   4.281   5.172 -0.8933  2.0971 -2.3517
   15PEO   H27910461  11.829   4.372   5.058 -1.1711  1.6354  1.7437
   15PEO   C27A10462  11.833   4.283   5.123  0.3157  0.1617 -0.2342
   15PEO   C27B10463  11.950   4.272   5.223  0.1975 -0.7465  0.9493
   15PEO   H27C10464  11.917   4.311   5.321 -2.3563  0.7647 -0.3924
   15PEO   H27D10465  11.969   4.164   5.231 -0.2188 -0.8615  0.4779
   15PEO   O27E10466  12.059   4.343   5.158 -0.4957  0.7462 -0.1584
   15PEO   H27F10467  12.188   4.207   5.256 -0.8371  0.6727  0.8174
   15PEO   H28010468  12.267   4.352   5.183 -1.8611  1.9942  0.9704
   15PEO   C28110469  12.188   4.277   5.171  0.2941 -0.2620  0.0131
   15PEO   C28210470  12.220   4.196   5.046  0.4148 -0.4779 -0.7059
   15PEO   H28310471  12.297   4.119   5.063 -0.8905 -1.0789  4.2250
   15PEO   H28410472  12.133   4.149   4.998  0.5042  1.4134 -2.8603
   15PEO   O28510473  12.266   4.290   4.947  0.1174 -0.4064  0.8474
   15PEO   H28610474  12.303   4.314   4.727  1.0695 -1.6706 -0.7779
   15PEO   H28710475  12.166   4.215   4.795 -0.7732  1.7249  2.7009
   15PEO   C28810476  12.271   4.244   4.806  0.0008  0.0831  0.4257
   15PEO   C28910477  12.359   4.121   4.785 -0.0682 -0.0496 -0.1131
   15PEO   H28A10478  12.366   4.064   4.879  1.4509 -0.4109 -0.4209
   15PEO   H28B10479  12.318   4.054   4.707  0.1910 -1.0942  0.6227
   15PEO   O28C10480  12.488   4.167   4.727  0.4141 -0.0353  0.0340
   15PEO   H28D10481  12.546   3.976   4.671  0.8569  1.7287 -1.9218
   15PEO   H28E10482  12.603   4.046   4.838 -1.6686  0.8926  1.1634
   15PEO   C28F10483  12.578   4.061   4.732  0.0151  0.3077  0.6640
   15PEO   C29010484  12.706   4.110   4.659 -0.7992 -0.0009 -0.5270
   15PEO   H29110485  12.769   4.022   4.646 -0.9899 -0.0421 -1.2179
   15PEO   H29210486  12.685   4.157   4.561 -1.3162 -0.3508 -0.5900
   15PEO   O29310487  12.785   4.201   4.743  0.2872  0.3768 -1.1230
   15PEO   H29410488  12.973   4.113   4.714 -0.1564  0.1753  0.5319
   15PEO   H29510489  12.984   4.267   4.802  0.9195 -0.8531  1.0228
   15PEO   C29610490  12.929   4.213   4.724  0.2890  0.3672  0.5984
   15PEO   C29710491  12.936   4.300   4.586 -0.5033  0.7510  0.8955
   15PEO   H29810492  13.041   4.295   4.556 -1.1385 -1.5507 -1.3354
   15PEO   H29910493  12.869   4.268   4.505  1.5423 -1.0992 -0.1709
   15PEO   O29A10494  12.903   4.441   4.615  0.1823 -0.0798 -0.3159
   15PEO   H29B10495  12.904   4.637   4.544  2.7123  0.9658  0.6948
   15PEO   H29C10496  12.956   4.505   4.425  1.2158 -0.9676 -0.4805
   15PEO   C29D10497  12.960   4.544   4.528 -0.7250 -1.1034 -0.3126
   15PEO   C29E10498  13.109   4.572   4.548  0.0079 -0.0749  0.0572
   15PEO   H29F10499  13.157   4.479   4.516  1.1200 -0.3729  2.4076
   15PEO   H2A010500  13.149   4.656   4.488 -0.9436  0.4893  0.1944
   15PEO   O2A110501  13.132   4.590   4.685  0.3270 -0.1221  0.0323
   15PEO   H2A210502  13.339   4.631   4.641  1.4290 -1.6929 -0.3890
   15PEO   H2A310503  13.307   4.475   4.722 -0.8345  0.0501 -1.7518
   15PEO   C2A410504  13.275   4.580   4.715 -0.0201  0.4452 -0.0894
   15PEO   C2A510505  13.295   4.631   4.859  0.3045  0.3843  0.8419
   15PEO   H2A610506  13.245   4.565   4.931  1.2672 -1.6299 -0.2460
   15PEO   H2A710507  13.401   4.632   4.887  1.0426  5.1981 -1.1129
   15PEO   O2A810508  13.248   4.767   4.862  0.3452  0.4920 -0.1387
   15PEO   H2A910509  13.284   4.779   5.058 -0.0706 -0.5844 -0.2574
   15PEO   H2AA10510  13.115   4.784   5.032  0.2992 -2.8641 -0.2939
   15PEO   C2AB10511  13.209   4.823   4.991 -0.4031 -0.7033  0.0357
   15PEO   C2AC10512  13.201   4.980   4.981  0.2610  0.6384 -0.3039
   15PEO   H2AD10513  13.168   5.021   5.077 -0.1768  0.3571 -0.3339
   15PEO   H2AE10514  13.298   5.012   4.941 -0.5945  2.3842 -1.0648
   15PEO   O2AF10515  13.110   5.024   4.879  0.2175 -0.1167 -0.3918
   15PEO   H2B010516  12.936   5.008   4.994 -1.9617 -0.4409 -0.0966
   15PEO   H2B110517  12.969   4.872   4.874  1.4349  0.1017  0.0715
   15PEO   C2B210518  12.967   4.980   4.892 -0.3131  0.0747  0.2279
   15PEO   C2B310519  12.883   5.051   4.790 -0.0042  0.3673  0.4258
   15PEO   H2B410520  12.778   5.020   4.798  0.0872  0.0637  0.4557
   15PEO   H2B510521  12.895   5.160   4.801  1.8528  0.2429 -0.0825
   15PEO   O2B610522  12.940   5.032   4.654 -0.1684  0.4804 -0.0965
   15PEO   H2B710523  12.846   4.847   4.637 -0.3991  4.2763  3.3667
   15PEO   H2B810524  13.021   4.839   4.630 -0.7845  0.9146  3.0124
   15PEO   C2B910525  12.934   4.899   4.597  0.2748  0.9617 -0.0745
   15PEO   C2BA10526  12.946   4.915   4.446  0.2705 -0.2730 -0.0345
   15PEO   H2BB10527  13.037   4.973   4.423  0.2403  0.0474  0.6370
   15PEO   H2BC10528  12.972   4.814   4.410 -2.4728 -1.0349 -0.0723
   15PEO   O2BD10529  12.827   4.953   4.377  0.2775 -0.5921  0.7854
   15PEO   H2BE10530  12.766   4.907   4.437  1.6895 -0.0250  2.7472
   16PEO   H00110531   0.855   4.801   4.067  0.4924  0.0441  0.6948
   16PEO   H00210532   0.916   4.714   3.915 -1.4091  0.5040  0.2472
   16PEO   H00310533   1.032   4.777   4.037 -1.1648 -1.4064  3.2495
   16PEO   C00410534   0.933   4.792   3.991  0.2407 -0.0110  0.4407
   16PEO   C00510535   0.935   4.924   3.913  0.0292  0.3423 -0.2734
   16PEO   H00610536   0.929   4.999   3.993 -0.6115 -1.9804  1.9818
   16PEO   H00710537   1.035   4.939   3.869  0.0924  0.3983 -0.1102
   16PEO   O00810538   0.832   4.937   3.816 -0.3524  0.1368 -0.4673
   16PEO   H00910539   0.929   5.091   3.734  1.5720 -3.3423  1.1856
   16PEO   H00A10540   0.800   5.144   3.835 -2.4389 -0.6526 -0.2554
   16PEO   C00B10541   0.824   5.069   3.758  0.0296  0.7050 -0.9474
   16PEO   C00C10542   0.730   5.074   3.634 -0.6728 -0.2225 -0.3652
   16PEO   H00D10543   0.635   5.021   3.647 -0.5325 -0.0856  1.6267
   16PEO   H00E10544   0.707   5.178   3.610  2.0351  0.7615  0.9226
   16PEO   O00F10545   0.794   5.022   3.525 -0.2614 -0.0382  0.2961
   16PEO   H01010546   0.837   5.033   3.319  0.2023  0.9331 -0.0589
   16PEO   H01110547   0.803   5.180   3.389  2.4054 -0.8195  0.3133
   16PEO   C01210548   0.769   5.076   3.395 -0.3267 -0.0363  0.0366
   16PEO   C01310549   0.627   5.049   3.353 -0.3016 -0.2700 -0.1663
   16PEO   H01410550   0.603   5.055   3.245 -1.1151  1.0162  0.0619
   16PEO   H01510551   0.611   4.943   3.379  0.3108  0.0894  1.7768
   16PEO   O01610552   0.525   5.135   3.419 -0.4824  0.5873  0.1337
   16PEO   H01710553   0.409   5.194   3.263 -1.7415  0.9155  0.1740
   16PEO   H01810554   0.330   5.205   3.421 -0.4046 -1.7983  0.7102
   16PEO   C01910555   0.399   5.144   3.361  0.5287 -0.0829 -0.0299
   16PEO   C01A10556   0.321   5.011   3.341 -0.0009 -0.3547  0.7268
   16PEO   H01B10557   0.316   4.955   3.436  3.4278  0.0615  1.2587
   16PEO   H01C10558   0.222   5.052   3.315  1.0083  1.6501 -0.1317
   16PEO   O01D10559   0.382   4.956   3.228 -0.5006  1.1717 -0.7908
   16PEO   H01E10560   0.262   4.795   3.200  0.1426 -1.2462 -1.4098
   16PEO   H01F10561   0.383   4.776   3.334 -0.8944  0.3052 -0.2830
   16PEO   C02010562   0.365   4.817   3.233 -0.5549  0.4966 -0.2695
   16PEO   C02110563   0.478   4.749   3.142 -0.4468 -0.0438 -0.0866
   16PEO   H02210564   0.581   4.786   3.142  0.2009 -1.6721 -1.8175
   16PEO   H02310565   0.478   4.639   3.154  0.9864  0.0308  0.8320
   16PEO   O02410566   0.441   4.770   3.008 -0.9880 -0.5166 -0.6043
   16PEO   H02510567   0.458   4.557   2.953  1.8672 -0.5000 -1.7855
   16PEO   H02610568   0.600   4.658   2.924  0.3180 -1.0832  3.5304
   16PEO   C02710569   0.490   4.659   2.926  0.1780  0.7793  0.6440
   16PEO   C02810570   0.437   4.696   2.788 -0.8502 -0.4778  0.2013
   16PEO   H02910571   0.461   4.798   2.757 -0.2013 -1.0047 -1.1122
   16PEO   H02A10572   0.474   4.623   2.715  1.4864  1.3266 -0.5451
   16PEO   O02B10573   0.293   4.676   2.792  0.7891 -0.3646  0.4095
   16PEO   H02C10574   0.315   4.470   2.786  3.6039  2.0776 -0.8572
   16PEO   H02D10575   0.275   4.539   2.627 -3.2570 -4.6509 -0.1393
   16PEO   C02E10576   0.259   4.550   2.735  0.0171  0.4294  0.1426
   16PEO   C02F10577   0.103   4.536   2.757 -0.7788  0.3002  0.1237
   16PEO   H03010578   0.067   4.636   2.727  1.6618  0.8406 -1.2534
   16PEO   H03110579   0.064   4.465   2.684 -1.5374 -1.4806  2.1449
   16PEO   O03210580   0.062   4.497   2.890 -0.4819 -0.3917 -0.0994
   16PEO   H03310581   0.093   4.693   2.942 -0.9059  0.6754  1.7720
   16PEO   H03410582   0.199   4.586   3.027  0.4699  1.6711 -0.9108
   16PEO   C03510583   0.095   4.594   2.991 -0.2016  0.0454  0.5131
   16PEO   C03610584  -0.003   4.589   3.112 -0.3602 -0.6285  0.3287
   16PEO   H03710585  -0.021   4.693   3.142  1.1071 -0.0982 -0.5234
   16PEO   H03810586  -0.099   4.545   3.081 -1.6707  1.2338  1.5458
   16PEO   O03910587   0.049   4.509   3.231  0.4547 -0.0403  0.5707
   16PEO   H03A10588  -0.094   4.420   3.359  0.2732  0.6674 -0.3137
   16PEO   H03B10589  -0.110   4.597   3.339  0.6199  1.8681  2.8663
   16PEO   C03C10590  -0.038   4.514   3.348 -0.0040  0.8663 -0.0264
   16PEO   C03D10591   0.050   4.544   3.467  0.8501  0.3782 -0.2289
   16PEO   H03E10592   0.095   4.644   3.471 -0.5685  1.0087  0.3232
   16PEO   H03F10593  -0.022   4.544   3.550  0.7999  0.6856 -0.2747
   16PEO   O04010594   0.150   4.441   3.487 -0.1895 -0.3484 -0.4018
   16PEO   H04110595   0.204   4.484   3.684 -0.3072 -0.5754 -0.3731
   16PEO   H04210596   0.297   4.562   3.551 -1.3303  1.2779  0.1260
   16PEO   C04310597   0.247   4.470   3.584  0.3693  0.1823 -0.2008
   16PEO   C04410598   0.342   4.354   3.585  0.3427 -0.0921 -0.7067
   16PEO   H04510599   0.415   4.358   3.504  2.1125 -1.2233  0.7557
   16PEO   H04610600   0.400   4.366   3.678  4.2937  1.2939 -3.1069
   16PEO   O04710601   0.279   4.226   3.580 -0.1102 -0.0113  0.3363
   16PEO   H04810602   0.195   4.220   3.766  2.0915  0.7427  1.1046
   16PEO   H04910603   0.357   4.159   3.760  0.6094  1.0141  0.2438
   16PEO   C04A10604   0.262   4.157   3.705  0.6807  0.1090  0.1426
   16PEO   C04B10605   0.223   4.014   3.678  0.1938  0.2200 -0.0290
   16PEO   H04C10606   0.193   3.965   3.771 -0.4406 -2.4902 -1.5585
   16PEO   H04D10607   0.134   4.007   3.614  0.8271 -0.2842 -0.8808
   16PEO   O04E10608   0.328   3.935   3.622 -0.4584  0.4345 -0.0558
   16PEO   H04F10609   0.358   3.759   3.524  1.6903 -2.3603  1.3335
   16PEO   H05010610   0.188   3.780   3.577  0.3895 -0.7163 -0.6043
   16PEO   C05110611   0.293   3.801   3.602  0.3527 -0.4604 -0.6531
   16PEO   C05210612   0.329   3.728   3.736 -0.6290  0.6124  0.1176
   16PEO   H05310613   0.344   3.626   3.696 -1.6482  1.2314 -1.9651
   16PEO   H05410614   0.426   3.750   3.784  0.2001  2.3028 -2.1667
   16PEO   O05510615   0.228   3.743   3.832  0.3412  0.9535 -0.2849
   16PEO   H05610616   0.315   3.757   4.023  0.0643 -0.2056  0.9427
   16PEO   H05710617   0.299   3.588   3.947  2.0376  1.0514 -1.4944
   16PEO   C05810618   0.253   3.686   3.965  0.2823 -0.0750  0.5451
   16PEO   C05910619   0.119   3.680   4.040 -0.4879 -0.4705  0.9453
   16PEO   H05A10620   0.145   3.681   4.147  0.8371  2.1120  0.6754
   16PEO   H05B10621   0.053   3.764   4.017 -0.0294 -0.2499  0.4208
   16PEO   O05C10622   0.057   3.560   3.993  0.3466  0.4334 -0.2256
   16PEO   H05D10623  -0.139   3.628   4.032  2.9081  1.8137 -1.1002
   16PEO   H05E10624  -0.091   3.514   4.147  2.2387  0.0247 -0.0943
   16PEO   C05F10625  -0.079   3.536   4.040 -0.0748 -0.2049 -0.4458
   16PEO   C06010626  -0.154   3.424   3.956 -0.3770  0.0485 -0.8573
   16PEO   H06110627  -0.259   3.455   3.942  0.4552  3.2559 -0.8777
   16PEO   H06210628  -0.112   3.425   3.854  0.9013  1.7035 -0.3629
   16PEO   O06310629  -0.140   3.300   4.023  0.3323 -0.1161  0.4855
   16PEO   H06410630  -0.329   3.249   3.950 -0.4537 -0.3643 -0.3116
   16PEO   H06510631  -0.314   3.252   4.134  1.2956  1.0259 -0.6606
   16PEO   C06610632  -0.266   3.229   4.037  0.2510 -0.5125 -0.8469
   16PEO   C06710633  -0.241   3.074   4.034 -0.4231  0.3494  0.5728
   16PEO   H06810634  -0.339   3.025   4.044 -0.2942  0.0221  0.2443
   16PEO   H06910635  -0.206   3.044   3.934  0.1502  0.9578  0.5830
   16PEO   O06A10636  -0.151   3.027   4.132 -0.0914 -0.2007 -0.1744
   16PEO   H06B10637  -0.099   2.850   4.039 -0.0159  0.6380 -0.8139
   16PEO   H06C10638  -0.251   2.854   4.127 -0.7127  1.8844  0.4572
   16PEO   C06D10639  -0.145   2.883   4.134 -0.2428  0.5789 -0.9021
   16PEO   C06E10640  -0.061   2.836   4.260  0.0349  0.3584  0.0389
   16PEO   H06F10641   0.007   2.757   4.223  0.6421  0.1526  1.4963
   16PEO   H07010642  -0.016   2.921   4.313  0.9516  0.4175 -0.8142
   16PEO   O07110643  -0.152   2.760   4.340  0.2214 -0.0381  0.3649
   16PEO   H07210644  -0.288   2.904   4.378  0.6111 -0.4515 -0.3956
   16PEO   H07310645  -0.178   2.867   4.523 -0.5319 -1.1071  1.5929
   16PEO   C07410646  -0.229   2.829   4.434  0.7482  0.1366  0.2706
   16PEO   C07510647  -0.318   2.716   4.485  0.3156  0.6684 -0.0001
   16PEO   H07610648  -0.404   2.764   4.534  0.6338 -0.7892  2.1046
   16PEO   H07710649  -0.349   2.639   4.413 -0.5280 -0.4039  1.4586
   16PEO   O07810650  -0.246   2.645   4.590 -0.4585 -0.6148 -0.1487
   16PEO   H07910651  -0.228   2.448   4.649 -0.6427  0.2677  2.6807
   16PEO   H07A10652  -0.381   2.483   4.570  1.0488 -2.0658  0.4714
   16PEO   C07B10653  -0.309   2.523   4.643  0.0999  0.9665 -0.0874
   16PEO   C07C10654  -0.369   2.540   4.785 -0.9247  0.6248  0.5450
   16PEO   H07D10655  -0.422   2.636   4.777  0.9116  1.6247 -0.2620
   16PEO   H07E10656  -0.426   2.451   4.815 -0.5268 -0.7496 -2.3889
   16PEO   O07F10657  -0.269   2.570   4.888 -0.1436 -0.4803  0.1460
   16PEO   H08010658  -0.107   2.482   4.951 -0.5610  0.0189  1.5440
   16PEO   H08110659  -0.217   2.368   4.867  2.2882 -2.4896  2.5311
   16PEO   C08210660  -0.212   2.451   4.939 -0.4886  0.3430 -0.2216
   16PEO   C08310661  -0.269   2.401   5.064  0.8369 -0.1675 -1.0379
   16PEO   H08410662  -0.376   2.377   5.056  0.4506  1.2126 -0.3867
   16PEO   H08510663  -0.222   2.311   5.107 -0.5778  0.4790  2.1975
   16PEO   O08610664  -0.248   2.515   5.158 -0.0286  0.4255  0.3902
   16PEO   H08710665  -0.162   2.405   5.305 -0.9394 -1.9217 -3.5804
   16PEO   H08810666  -0.346   2.413   5.315 -1.0847  1.0315  0.0996
   16PEO   C08910667  -0.252   2.468   5.295 -0.3457 -0.1008  0.3795
   16PEO   C08A10668  -0.235   2.584   5.382  0.8350 -0.3478 -0.0849
   16PEO   H08B10669  -0.209   2.546   5.482 -0.1485 -2.1043 -0.4670
   16PEO   H08C10670  -0.153   2.645   5.341  1.6063 -0.2082  1.6062
   16PEO   O08D10671  -0.359   2.662   5.386  0.1476  0.1854  0.0896
   16PEO   H08E10672  -0.349   2.737   5.196  2.9816  1.1192 -0.1646
   16PEO   H08F10673  -0.265   2.825   5.313  1.0396 -2.9964  0.0715
   16PEO   C09010674  -0.359   2.769   5.300 -0.8322 -0.0338 -0.0248
   16PEO   C09110675  -0.495   2.838   5.314 -0.1423  0.5414 -0.0182
   16PEO   H09210676  -0.503   2.915   5.237  1.2024 -0.1550 -0.9059
   16PEO   H09310677  -0.573   2.760   5.306  1.4200 -0.9323 -2.0707
   16PEO   O09410678  -0.513   2.901   5.442  0.1470  0.3860 -0.3906
   16PEO   H09510679  -0.320   2.998   5.471  0.2501  2.3190 -3.4707
   16PEO   H09610680  -0.452   3.058   5.561 -2.3193 -0.9755  0.1330
   16PEO   C09710681  -0.428   3.016   5.462 -0.2828  1.2115 -0.4109
   16PEO   C09810682  -0.461   3.129   5.357  0.2889 -0.3157  0.0817
   16PEO   H09910683  -0.411   3.113   5.260 -2.2667 -0.5639 -1.2720
   16PEO   H09A10684  -0.570   3.130   5.344  0.0839  0.1625  1.6436
   16PEO   O09B10685  -0.420   3.254   5.423  0.3132  0.1093 -0.1391
   16PEO   H09C10686  -0.592   3.355   5.402  0.7304 -0.5982  0.9313
   16PEO   H09D10687  -0.476   3.368   5.257  0.0534 -0.3434 -0.2140
   16PEO   C09E10688  -0.488   3.361   5.366  0.3673 -0.6771 -0.1974
   16PEO   C09F10689  -0.444   3.491   5.429 -0.2052  0.4322  0.3519
   16PEO   H0A010690  -0.334   3.499   5.430 -0.2344  1.1063  2.8026
   16PEO   H0A110691  -0.494   3.565   5.364 -1.1257  0.2932  0.8859
   16PEO   O0A210692  -0.495   3.509   5.563 -0.6870 -0.6354 -0.1531
   16PEO   H0A310693  -0.321   3.607   5.644 -0.0142 -1.2863  0.1619
   16PEO   H0A410694  -0.471   3.594   5.741 -0.6859  0.3183 -0.0678
   16PEO   C0A510695  -0.431   3.607   5.639 -0.0496  0.4897  0.1950
   16PEO   C0A610696  -0.483   3.740   5.575 -0.1494 -0.6582 -0.5585
   16PEO   H0A710697  -0.589   3.733   5.546 -0.6015 -1.2265  1.1194
   16PEO   H0A810698  -0.476   3.810   5.661 -1.4257 -1.2531  0.0523
   16PEO   O0A910699  -0.399   3.778   5.468 -0.2083 -0.1470  0.3123
   16PEO   H0AA10700  -0.473   3.983   5.454 -1.1039 -0.0172 -0.9039
   16PEO   H0AB10701  -0.541   3.859   5.347 -0.6849 -2.7261  1.9899
   16PEO   C0AC10702  -0.448   3.897   5.392 -0.4080 -0.1255 -0.4796
   16PEO   C0AD10703  -0.346   3.942   5.285  0.0306  0.1791 -0.1443
   16PEO   H0AE10704  -0.381   4.033   5.233 -0.1002  0.5136  0.5266
   16PEO   H0AF10705  -0.247   3.967   5.326  1.0447 -1.7133 -1.2843
   16PEO   O0B010706  -0.317   3.835   5.192 -0.5424  0.7075  0.2982
   16PEO   H0B110707  -0.110   3.892   5.159 -0.2585  1.9984 -0.7693
   16PEO   H0B210708  -0.219   3.940   5.028 -0.5318  0.2459 -0.1554
   16PEO   C0B310709  -0.201   3.863   5.105 -0.0130  0.2266 -0.2931
   16PEO   C0B410710  -0.188   3.728   5.027 -0.3145 -0.5387  0.8957
   16PEO   H0B510711  -0.285   3.682   5.003 -0.3535  0.3017 -0.6782
   16PEO   H0B610712  -0.131   3.757   4.937 -1.9616  3.8561  1.0659
   16PEO   O0B710713  -0.117   3.631   5.107  0.4520 -0.8484 -0.1953
   16PEO   H0B810714  -0.280   3.528   5.138 -0.4283  0.5956  1.4134
   16PEO   H0B910715  -0.223   3.616   5.288  2.1313 -0.9289  1.8945
   16PEO   C0BA10716  -0.194   3.557   5.200  0.4438  0.4540  0.3099
   16PEO   C0BB10717  -0.126   3.428   5.250 -0.5285 -0.1532 -0.8827
   16PEO   H0BC10718  -0.020   3.454   5.262 -0.7911 -0.1504  2.0309
   16PEO   H0BD10719  -0.159   3.393   5.349  0.4676  0.3210 -0.3719
   16PEO   O0BE10720  -0.147   3.329   5.152  0.5298 -0.0828  0.8087
   16PEO   H0BF10721  -0.182   3.156   5.254 -3.1915  2.8208 -0.6280
   16PEO   H0C010722  -0.003   3.206   5.225 -0.1580 -0.4937  0.4966
   16PEO   C0C110723  -0.105   3.193   5.185 -0.0336 -1.1571  0.3820
   16PEO   C0C210724  -0.097   3.117   5.050 -0.4592  0.7258 -0.0228
   16PEO   H0C310725  -0.059   3.172   4.963  0.1461  1.2540  0.5642
   16PEO   H0C410726  -0.034   3.027   5.055 -3.4184 -1.4837  0.0040
   16PEO   O0C510727  -0.237   3.081   5.023 -0.0983 -0.9839  0.2125
   16PEO   H0C610728  -0.274   3.076   4.814  1.4575  2.0938  2.0861
   16PEO   H0C710729  -0.382   2.977   4.919 -0.0088 -0.4590  0.9656
   16PEO   C0C810730  -0.279   3.012   4.903 -0.1540 -0.3062  0.3547
   16PEO   C0C910731  -0.195   2.883   4.880 -0.3129 -0.3803  0.7388
   16PEO   H0CA10732  -0.170   2.827   4.972  0.4275 -2.1047 -0.4539
   16PEO   H0CB10733  -0.248   2.823   4.804  0.5249  0.7691 -0.8127
   16PEO   O0CC10734  -0.067   2.937   4.829 -0.1998 -0.6277  0.3407
   16PEO   H0CD10735  -0.076   2.792   4.680  0.0349 -0.8516  0.2994
   16PEO   H0CE10736   0.041   2.743   4.798  1.7323 -1.6987 -3.3615
   16PEO   C0CF10737  -0.001   2.832   4.749  0.0259 -0.4416  0.0803
   16PEO   C0D010738   0.105   2.894   4.654  0.3996  0.2252 -0.5104
   16PEO   H0D110739   0.123   2.834   4.563 -0.4811  0.9683 -1.1882
   16PEO   H0D210740   0.068   2.991   4.619  1.4946  1.3574  1.3301
   16PEO   O0D310741   0.236   2.917   4.714 -0.4858 -0.2786  0.3081
   16PEO   H0D410742   0.339   3.014   4.878 -0.0128 -0.8736  0.8853
   16PEO   H0D510743   0.169   2.981   4.897 -0.3216 -0.5474 -0.6294
   16PEO   C0D610744   0.244   3.017   4.824  0.2311  0.6206  0.4691
   16PEO   C0D710745   0.199   3.156   4.765  0.3378  0.0044 -0.3628
   16PEO   H0D810746   0.098   3.138   4.725  0.2626  0.6004 -0.4524
   16PEO   H0D910747   0.191   3.212   4.859  1.5577 -0.3572 -0.0123
   16PEO   O0DA10748   0.298   3.215   4.682 -0.2004  0.0020  0.5288
   16PEO   H0DB10749   0.311   3.417   4.705  2.5504  1.6076 -3.4736
   16PEO   H0DC10750   0.146   3.355   4.658 -0.8427 -1.9379 -3.5559
   16PEO   C0DD10751   0.254   3.347   4.643 -0.0390  0.7664 -0.4172
   16PEO   C0DE10752   0.292   3.381   4.493  0.4058  0.2426 -0.9986
   16PEO   H0DF10753   0.245   3.478   4.472 -0.8088 -0.2172 -0.4701
   16PEO   H0E010754   0.401   3.381   4.479  0.4229 -2.7731 -1.3623
   16PEO   O0E110755   0.225   3.288   4.402 -0.3770  0.7142 -0.6794
   16PEO   H0E210756   0.298   3.368   4.223  0.5307 -0.7300 -1.0703
   16PEO   H0E310757   0.127   3.417   4.272 -0.8158 -0.8555 -1.5246
   16PEO   C0E410758   0.203   3.337   4.268  0.6284  0.3710 -0.0695
   16PEO   C0E510759   0.139   3.231   4.176 -0.1185 -0.6033 -1.0724
   16PEO   H0E610760   0.051   3.189   4.227 -0.1458 -0.8035 -1.2825
   16PEO   H0E710761   0.098   3.281   4.086  0.5526  0.6155 -0.7333
   16PEO   O0E810762   0.228   3.129   4.129 -0.8598  0.5452 -0.2354
   16PEO   H0E910763   0.187   3.043   4.318 -0.3701  2.2647 -0.2076
   16PEO   H0EA10764   0.360   3.036   4.266 -0.7347 -0.0911  1.6469
   16PEO   C0EB10765   0.255   3.033   4.232 -0.2492 -1.0550  0.1343
   16PEO   C0EC10766   0.239   2.895   4.178 -0.3498  0.0153  0.6748
   16PEO   H0ED10767   0.216   2.837   4.269  0.2795 -0.1792  0.7106
   16PEO   H0EE10768   0.148   2.891   4.116 -0.4367 -0.1852  0.8131
   16PEO   O0EF10769   0.348   2.844   4.101 -0.6001  0.1737  0.1451
   16PEO   H0F010770   0.389   3.021   4.002  0.5867 -0.1755 -1.7378
   16PEO   H0F110771   0.296   2.884   3.903  0.7456 -2.7639  0.2353
   16PEO   C0F210772   0.372   2.916   3.976 -0.1378 -0.5877  0.3018
   16PEO   C0F310773   0.499   2.859   3.903  0.0240 -0.8314 -0.1695
   16PEO   H0F410774   0.530   2.923   3.819  2.8173  1.4562  2.3725
   16PEO   H0F510775   0.579   2.857   3.979 -0.1915  0.6671  0.1220
   16PEO   O0F610776   0.478   2.727   3.858 -0.0015  0.6047 -0.4009
   16PEO   H0F710777   0.655   2.632   3.919 -2.0976  1.1061  1.2174
   16PEO   H0F810778   0.671   2.723   3.769  1.9627  0.0324  1.2266
   16PEO   C0F910779   0.603   2.657   3.825  0.6030 -0.3873 -0.8258
   16PEO   C0FA10780   0.585   2.522   3.752  0.3560  0.6499 -1.0286
   16PEO   H0FB10781   0.507   2.544   3.677 -1.7050 -0.3836  0.6804
   16PEO   H0FC10782   0.679   2.486   3.708 -0.1577 -1.7207 -0.3523
   16PEO   O0FD10783   0.539   2.410   3.838 -0.5348 -0.4586  0.0518
   16PEO   H0FE10784   0.338   2.491   3.853 -1.2567 -1.3345  2.2987
   16PEO   H0FF10785   0.407   2.458   4.002  0.8655  4.5045 -0.7276
   16PEO   C10010786   0.412   2.424   3.898  1.1440 -0.0103  0.5671
   16PEO   C10110787   0.341   2.289   3.899 -0.7462  0.0306 -0.5231
   16PEO   H10210788   0.243   2.309   3.945 -0.1645  2.1336 -0.0928
   16PEO   H10310789   0.319   2.257   3.796 -2.9209  1.2515 -0.4951
   16PEO   O10410790   0.421   2.198   3.979 -0.0841 -0.4197 -1.3933
   16PEO   H10510791   0.292   2.034   3.927  0.9058 -2.0190  1.5069
   16PEO   H10610792   0.267   2.105   4.085  2.3694  1.2184  1.8749
   16PEO   C10710793   0.344   2.081   4.011  0.6650  1.2321 -0.0056
   16PEO   C10810794   0.443   1.986   4.079  0.0285  0.4514 -0.6133
   16PEO   H10910795   0.505   2.044   4.149 -0.2867  2.0150 -1.5651
   16PEO   H10A10796   0.396   1.900   4.129 -1.9957  1.8714  0.0390
   16PEO   O10B10797   0.536   1.946   3.977  0.9507  0.4124 -0.2121
   16PEO   H10C10798   0.598   1.820   4.115 -0.7576  0.3638  0.2916
   16PEO   H10D10799   0.722   1.938   4.078  1.1484 -2.2058  2.0855
   16PEO   C10E10800   0.642   1.878   4.032 -0.0595  0.3234  0.6293
   16PEO   C10F10801   0.703   1.777   3.929 -0.0604 -0.1452  0.7768
   16PEO   H11010802   0.710   1.815   3.826  0.6420 -1.1619  0.4255
   16PEO   H11110803   0.810   1.775   3.953  0.2334  3.8563  0.3469
   16PEO   O11210804   0.622   1.652   3.936  0.2292 -0.4504 -0.3249
   16PEO   H11310805   0.754   1.556   3.812 -0.5573  0.1858 -1.0589
   16PEO   H11410806   0.587   1.559   3.753  0.8618 -0.7644 -0.5516
   16PEO   C11510807   0.648   1.551   3.844 -0.1746 -0.3552  0.2034
   16PEO   C11610808   0.625   1.415   3.911  0.8106  0.2407  0.2832
   16PEO   H11710809   0.681   1.337   3.856  0.1396  1.5777 -2.5043
   16PEO   H11810810   0.679   1.436   4.004 -0.6594  1.6749  0.8710
   16PEO   O11910811   0.488   1.383   3.935  0.7818 -0.5796  0.0274
   16PEO   H11A10812   0.528   1.262   4.092  1.1267 -0.5666 -0.5330
   16PEO   H11B10813   0.463   1.182   3.945  0.0874  0.4279 -0.6449
   16PEO   C11C10814   0.452   1.268   4.013  0.3753 -0.1929  0.2041
   16PEO   C11D10815   0.313   1.277   4.081 -0.1112  0.4429  1.2149
   16PEO   H11E10816   0.245   1.340   4.021  0.8175 -0.7760 -1.2693
   16PEO   H11F10817   0.264   1.178   4.080  0.7787 -0.0101  0.1185
   16PEO   O12010818   0.322   1.314   4.217 -0.6304 -0.5100 -0.5696
   16PEO   H12110819   0.207   1.174   4.313  0.9031 -0.3229 -0.5868
   16PEO   H12210820   0.115   1.304   4.238  0.8382  0.0260  0.1776
   16PEO   C12310821   0.206   1.282   4.294  0.6513 -0.1448  0.4177
   16PEO   C12410822   0.204   1.366   4.420 -0.0740  0.2132 -0.1644
   16PEO   H12510823   0.146   1.314   4.498  0.5756  1.7476  1.4258
   16PEO   H12610824   0.311   1.373   4.445 -0.2394  0.9759  0.3749
   16PEO   O12710825   0.159   1.495   4.388 -0.0894 -0.6394  0.1448
   16PEO   H12810826   0.151   1.681   4.450 -1.7408 -0.1727  1.5058
   16PEO   H12910827   0.246   1.575   4.562 -0.0148 -1.2157 -0.2974
   16PEO   C12A10828   0.156   1.583   4.500 -0.6825 -0.5253  0.7289
   16PEO   C12B10829   0.018   1.560   4.570 -0.2283 -0.3401 -0.6458
   16PEO   H12C10830  -0.001   1.655   4.621  4.7157  0.4755  0.2130
   16PEO   H12D10831  -0.066   1.524   4.508 -1.1418 -2.7933  1.8078
   16PEO   O12E10832   0.041   1.450   4.671  0.4498  0.1741  0.0460
   16PEO   H12F10833  -0.149   1.480   4.776  0.2803  0.9994 -2.0802
   16PEO   H13010834  -0.045   1.342   4.829 -1.9888 -1.7422  0.2464
   16PEO   C13110835  -0.073   1.407   4.745  0.5782  0.0226  0.6666
   16PEO   C13210836  -0.159   1.314   4.644 -0.9801  0.1178 -0.6975
   16PEO   H13310837  -0.246   1.278   4.701 -1.0029  0.6384 -0.3967
   16PEO   H13410838  -0.194   1.382   4.565 -0.9949  0.5435 -0.3328
   16PEO   O13510839  -0.075   1.209   4.599  0.1735 -0.0048 -0.9618
   16PEO   H13610840  -0.151   1.218   4.416  0.2809  1.7976  2.0560
   16PEO   H13710841  -0.238   1.097   4.512 -1.6478  3.7421 -0.2979
   16PEO   C13810842  -0.138   1.139   4.492  0.1957  0.0975  0.3611
   16PEO   C13910843  -0.029   1.040   4.432  0.3699 -0.2373  0.1987
   16PEO   H13A10844  -0.046   1.043   4.323  0.9693 -1.3469  0.0642
   16PEO   H13B10845   0.067   1.091   4.448  0.8173 -0.7007 -0.8800
   16PEO   O13C10846  -0.031   0.913   4.494  0.2477 -0.4662 -0.0887
   16PEO   H13D10847   0.077   0.727   4.497  3.5356 -0.2274 -0.4721
   16PEO   H13E10848   0.168   0.882   4.490 -0.5757  0.3100  1.4506
   16PEO   C13F10849   0.077   0.829   4.456  0.1064  0.0720 -0.0579
   16PEO   C14010850   0.081   0.802   4.301 -0.4571 -0.7562  0.5492
   16PEO   H14110851   0.114   0.894   4.251  1.6532 -1.7022  0.0868
   16PEO   H14210852   0.165   0.734   4.281  0.8639  0.5013  1.6361
   16PEO   O14310853  -0.050   0.752   4.263  0.0623 -0.6272 -0.1047
   16PEO   H14410854  -0.053   0.822   4.070  1.2045 -0.4474  0.3302
   16PEO   H14510855  -0.184   0.708   4.110  0.3898  0.3242  3.5840
   16PEO   C14610856  -0.078   0.729   4.125  1.1734 -0.5339  0.1710
   16PEO   C14710857   0.004   0.620   4.071  0.6492  0.5269 -0.3043
   16PEO   H14810858   0.000   0.530   4.134  0.7272  0.8397  0.1514
   16PEO   H14910859  -0.041   0.586   3.976  1.8829 -0.4496 -0.5632
   16PEO   O14A10860   0.134   0.659   4.031 -0.3171 -0.4972  0.1599
   16PEO   H14B10861   0.090   0.852   3.941 -0.5725 -0.3893 -1.2372
   16PEO   H14C10862   0.116   0.718   3.826  1.8898  1.0051 -1.5316
   16PEO   C14D10863   0.142   0.757   3.926 -0.1537 -0.2932 -0.4243
   16PEO   C14E10864   0.291   0.794   3.919  1.2108  0.1143 -0.6225
   16PEO   H14F10865   0.338   0.697   3.897 -0.5263 -1.7704  3.0629
   16PEO   H15010866   0.314   0.859   3.833  1.7872  1.2767  0.3700
   16PEO   O15110867   0.331   0.848   4.042  0.0684 -0.5935 -0.0910
   16PEO   H15210868   0.485   0.982   4.022 -0.4519 -0.5593 -1.3622
   16PEO   H15310869   0.522   0.806   4.000  0.7392  0.9641 -1.3343
   16PEO   C15410870   0.467   0.881   4.060  0.2081 -0.2710 -0.2454
   16PEO   C15510871   0.508   0.862   4.201 -0.2803  0.6746 -0.0226
   16PEO   H15610872   0.477   0.764   4.241 -0.2622 -0.2247 -2.0960
   16PEO   H15710873   0.615   0.885   4.210 -0.5663  1.5109  1.7339
   16PEO   O15810874   0.438   0.955   4.285  0.2123 -0.3651 -0.0490
   16PEO   H15910875   0.430   0.858   4.469 -1.2359 -0.2406 -0.6556
   16PEO   H15A10876   0.413   1.032   4.469  0.2223 -0.1893  1.6185
   16PEO   C15B10877   0.470   0.950   4.423 -0.4107 -0.0125  0.4742
   16PEO   C15C10878   0.619   0.959   4.464 -0.8721 -0.5940  0.5910
   16PEO   H15D10879   0.679   1.039   4.418  0.4219 -0.9398  1.6089
   16PEO   H15E10880   0.629   0.987   4.570  1.6645  4.4214 -0.6672
   16PEO   O15F10881   0.685   0.830   4.442 -0.9733 -0.6549 -0.2059
   16PEO   H16010882   0.800   0.850   4.620  3.7352  0.4153 -0.2608
   16PEO   H16110883   0.867   0.893   4.466  1.3901 -1.7929 -1.7993
   16PEO   C16210884   0.809   0.815   4.516 -0.2048  0.0808 -0.6144
   16PEO   C16310885   0.869   0.678   4.491 -0.4290 -0.3189  1.0109
   16PEO   H16410886   0.976   0.673   4.513 -0.7095 -0.7596  2.3886
   16PEO   H16510887   0.820   0.596   4.545  1.0325 -1.8229  0.1430
   16PEO   O16610888   0.858   0.648   4.352 -0.3353 -0.0805  0.0552
   16PEO   H16710889   0.998   0.489   4.361 -0.0971  2.0646  0.2537
   16PEO   H16810890   0.925   0.521   4.198  1.8529  2.1009  0.0449
   16PEO   C16910891   0.907   0.517   4.307 -0.3522  0.2143 -0.3305
   16PEO   C16A10892   0.788   0.418   4.330 -0.8798  0.3202  0.3340
   16PEO   H16B10893   0.834   0.318   4.326  0.8246  1.0471  1.0619
   16PEO   H16C10894   0.747   0.417   4.432  1.3096 -1.7645  1.2904
   16PEO   O16D10895   0.693   0.429   4.221 -0.9984  0.1238 -0.6397
   16PEO   H16E10896   0.668   0.638   4.184 -0.8648  1.3769  3.2884
   16PEO   H16F10897   0.583   0.569   4.325 -0.7925  1.4170 -0.0116
   16PEO   C17010898   0.613   0.550   4.221 -0.1460 -0.4117  0.4622
   16PEO   C17110899   0.499   0.506   4.128  0.5106  0.2948  0.0269
   16PEO   H17210900   0.427   0.588   4.124 -2.6099 -2.2442 -0.3206
   16PEO   H17310901   0.543   0.487   4.028  0.6331  0.3800  0.0639
   16PEO   O17410902   0.433   0.388   4.186  0.2839  0.6015 -0.2900
   16PEO   H17510903   0.392   0.274   4.020 -0.6185 -0.7639  0.1393
   16PEO   H17610904   0.291   0.419   4.028  1.5026 -0.7528 -2.0452
   16PEO   C17710905   0.336   0.338   4.089 -0.3690 -0.3584 -0.0354
   16PEO   C17810906   0.225   0.253   4.154  0.3695  0.0020 -0.0330
   16PEO   H17910907   0.160   0.212   4.076  1.3736 -0.8848 -0.4270
   16PEO   H17A10908   0.275   0.168   4.202  0.6192 -0.3632 -0.9359
   16PEO   O17B10909   0.166   0.345   4.254  0.0675 -0.2038  0.6133
   16PEO   H17C10910   0.257   0.263   4.411  0.7108  2.4414 -1.6685
   16PEO   H17D10911   0.092   0.200   4.390 -1.2924  0.9947  3.1747
   16PEO   C17E10912   0.155   0.290   4.382 -0.1196  0.0348 -1.2454
   16PEO   C17F10913   0.101   0.418   4.468 -0.4769  0.3971  0.2980
   16PEO   H18010914   0.039   0.483   4.406 -1.3956 -1.2683 -0.6187
   16PEO   H18110915   0.036   0.385   4.550 -0.3749  1.4181  0.7938
   16PEO   O18210916   0.202   0.492   4.520  0.0403 -0.4127  0.1520
   16PEO   H18310917   0.268   0.589   4.366 -0.1497  1.8392  1.6745
   16PEO   H18410918   0.377   0.448   4.403  0.2302  1.2409 -2.0025
   16PEO   C18510919   0.313   0.527   4.445  0.0251 -0.0088  0.2004
   16PEO   C18610920   0.395   0.597   4.548 -0.1952  0.7247 -0.1196
   16PEO   H18710921   0.477   0.648   4.496  0.0681 -1.9253 -2.5366
   16PEO   H18810922   0.338   0.662   4.616  0.2590  1.7779 -0.7143
   16PEO   O18910923   0.456   0.486   4.631  0.5858 -0.4726 -0.5249
   16PEO   H18A10924   0.484   0.631   4.794 -1.3082  0.2832 -0.5408
   16PEO   H18B10925   0.621   0.570   4.715  0.6230 -1.2539  1.5115
   16PEO   C18C10926   0.520   0.540   4.745 -0.1265  0.1498  0.5230
   16PEO   C18D10927   0.522   0.428   4.850 -0.2076  1.1755  0.6437
   16PEO   H18E10928   0.562   0.333   4.812 -1.9652  0.4925  0.4006
   16PEO   H18F10929   0.592   0.448   4.932 -2.2572  1.2895  2.4670
   16PEO   O19010930   0.397   0.408   4.915  0.0422  0.0710  0.8484
   16PEO   H19110931   0.296   0.226   4.851  1.3896  0.4824  0.1610
   16PEO   H19210932   0.266   0.373   4.755 -0.2139  3.6556  2.2294
   16PEO   C19310933   0.283   0.335   4.857  0.6728  0.3655  0.9898
   16PEO   C19410934   0.162   0.361   4.944 -0.5233  0.2429  0.2153
   16PEO   H19510935   0.163   0.464   4.984 -3.3784 -0.0323  1.2219
   16PEO   H19610936   0.066   0.357   4.892 -0.3114 -1.2285 -0.0911
   16PEO   O19710937   0.153   0.272   5.056  0.1193 -0.2479  0.0044
   16PEO   H19810938   0.014   0.171   5.169  0.2383  0.6269  0.4874
   16PEO   H19910939  -0.059   0.289   5.070  1.7020  1.3494 -3.3528
   16PEO   C19A10940   0.030   0.273   5.133 -0.0873  0.2130 -0.9219
   16PEO   C19B10941   0.049   0.388   5.236  0.3511  0.8742  0.0860
   16PEO   H19C10942   0.008   0.375   5.337  2.5128  0.5432  0.9834
   16PEO   H19D10943   0.158   0.388   5.255 -0.1590  0.5502  3.6655
   16PEO   O19E10944   0.005   0.515   5.188  0.2416 -0.0596 -0.1520
   16PEO   H19F10945   0.144   0.611   5.330  0.9234  1.4798 -1.0525
   16PEO   H1A010946  -0.025   0.610   5.371  1.1257 -0.0545  0.9688
   16PEO   C1A110947   0.044   0.616   5.285  0.2345  0.1765  0.2576
   16PEO   C1A210948   0.025   0.754   5.217  0.0889 -0.5575  0.9191
   16PEO   H1A310949  -0.082   0.778   5.205  0.5926  0.7906 -1.5686
   16PEO   H1A410950   0.066   0.833   5.282  0.1536 -0.5307  0.8458
   16PEO   O1A510951   0.098   0.754   5.085  0.4510 -0.8365 -0.2123
   16PEO   H1A610952   0.292   0.684   5.147  1.6747  0.2406  1.1455
   16PEO   H1A710953   0.265   0.860   5.154  0.1212 -0.4993  0.6601
   16PEO   C1A810954   0.241   0.768   5.099  0.6661 -0.6388  0.6484
   16PEO   C1A910955   0.299   0.784   4.951  0.3843 -0.2127  0.5857
   16PEO   H1AA10956   0.399   0.741   4.962  0.1455 -0.7773  0.6132
   16PEO   H1AB10957   0.249   0.715   4.881  0.7856 -0.9964  1.0575
   16PEO   O1AC10958   0.303   0.921   4.909  0.1447  0.2279 -0.1251
   16PEO   H1AD10959   0.113   0.923   4.818 -0.9995  0.7838  0.4649
   16PEO   H1AE10960   0.256   0.897   4.713 -0.4426  0.3267 -0.2553
   16PEO   C1AF10961   0.217   0.955   4.798 -0.7908 -0.1949 -0.0601
   16PEO   C1B010962   0.229   1.106   4.778  0.0352  0.5306 -0.2356
   16PEO   H1B110963   0.141   1.143   4.723 -0.3626 -0.0359  0.0085
   16PEO   H1B210964   0.239   1.146   4.879  2.6655 -1.1813  0.2755
   16PEO   O1B310965   0.352   1.131   4.712 -0.1694 -0.0056  0.2763
   16PEO   H1B410966   0.420   1.303   4.802  1.0247  0.1933  0.5607
   16PEO   H1B510967   0.326   1.327   4.645  1.1396 -0.6148 -0.7040
   16PEO   C1B610968   0.397   1.264   4.702  0.6339  0.0430  0.7069
   16PEO   C1B710969   0.525   1.266   4.619 -0.2515  0.6065 -0.2696
   16PEO   H1B810970   0.515   1.210   4.525  1.4520  0.8202 -0.6006
   16PEO   H1B910971   0.546   1.371   4.593  0.4088 -0.1131 -2.9533
   16PEO   O1BA10972   0.634   1.227   4.703  0.2619  0.3609 -0.1737
   16PEO   H1BB10973   0.755   1.359   4.613 -0.6730  0.4602  2.5245
   16PEO   H1BC10974   0.776   1.187   4.561 -3.1426 -0.1016 -0.8231
   16PEO   C1BD10975   0.762   1.255   4.647 -0.5203 -0.4242 -0.0614
   16PEO   C1BE10976   0.870   1.230   4.758 -0.3273 -0.2339 -0.4990
   16PEO   H1BF10977   0.956   1.293   4.729  0.5213 -0.9121  0.4936
   16PEO   H1C010978   0.837   1.257   4.859  0.0279  0.6010 -0.5909
   16PEO   O1C110979   0.914   1.089   4.745 -0.1309 -0.4280  0.6110
   16PEO   H1C210980   0.951   1.040   4.942 -1.6979  1.7899 -0.6902
   16PEO   H1C310981   1.081   1.128   4.859  1.0970 -0.6224 -0.0180
   16PEO   C1C410982   1.008   1.047   4.848 -0.0388  0.3511  0.1449
   16PEO   C1C510983   1.086   0.917   4.807  0.4504 -0.7019 -0.2409
   16PEO   H1C610984   1.146   0.889   4.894  0.2021 -1.1416 -0.2095
   16PEO   H1C710985   1.011   0.840   4.784 -0.4287  0.2100 -0.5042
   16PEO   O1C810986   1.170   0.951   4.696 -0.1257 -0.0919 -0.2825
   16PEO   H1C910987   1.216   0.763   4.632 -0.5192  0.7589 -0.6994
   16PEO   H1CA10988   1.317   0.811   4.762 -0.3922 -1.2164 -0.3551
   16PEO   C1CB10989   1.271   0.850   4.670 -0.3659  0.2703  0.2379
   16PEO   C1CC10990   1.375   0.892   4.564  0.1158 -1.0395 -0.5308
   16PEO   H1CD10991   1.408   0.794   4.526 -1.4486 -1.1668 -1.6556
   16PEO   H1CE10992   1.323   0.960   4.495  0.5270  0.9136  0.9934
   16PEO   O1CF10993   1.478   0.967   4.632  0.1235 -0.2733  0.5562
   16PEO   H1D010994   1.674   1.058   4.613  2.5174 -0.1972 -2.7521
   16PEO   H1D110995   1.601   1.000   4.462 -3.2333 -1.9730 -0.2449
   16PEO   C1D210996   1.611   0.979   4.569 -0.0921  0.1677  0.0125
   16PEO   C1D310997   1.681   0.852   4.585 -0.0721  0.1628 -0.1468
   16PEO   H1D410998   1.607   0.770   4.585 -0.2246  0.2913  0.3315
   16PEO   H1D510999   1.764   0.832   4.517  1.3494  0.3510  1.4728
   16PEO   O1D611000   1.736   0.840   4.719 -0.5232  0.0247 -0.7695
   16PEO   H1D711001   1.880   0.686   4.694  0.3111 -0.9141  0.2818
   16PEO   H1D811002   1.716   0.630   4.716  0.5705 -0.2384  1.3886
   16PEO   C1D911003   1.787   0.708   4.749  0.3755  0.6380 -0.1858
   16PEO   C1DA11004   1.797   0.698   4.900  0.8092 -0.0020 -0.1332
   16PEO   H1DB11005   1.711   0.754   4.940  0.0861 -2.6003  2.3069
   16PEO   H1DC11006   1.794   0.591   4.927 -0.1328  0.0526  0.0240
   16PEO   O1DD11007   1.916   0.758   4.959  0.7081 -0.0811  0.4063
   16PEO   H1DE11008   1.943   0.654   5.137 -1.2798 -0.1418  0.7959
   16PEO   H1DF11009   1.847   0.805   5.151  0.6504  3.0036 -1.5036
   16PEO   C1E011010   1.933   0.758   5.102 -0.1613 -0.2926 -0.0096
   16PEO   C1E111011   2.063   0.842   5.131  0.4208  0.1152 -0.7022
   16PEO   H1E211012   2.044   0.943   5.091 -3.2193 -0.7095 -1.3917
   16PEO   H1E311013   2.076   0.851   5.240 -0.7469  2.0282 -0.6760
   16PEO   O1E411014   2.186   0.776   5.088 -0.2743  0.1204 -0.0398
   16PEO   H1E511015   2.373   0.818   5.146 -0.5794  0.0902  1.2125
   16PEO   H1E611016   2.269   0.963   5.149 -1.5827  1.2389 -1.8585
   16PEO   C1E711017   2.293   0.871   5.092  0.0736  0.2235  0.3564
   16PEO   C1E811018   2.345   0.909   4.954 -0.7726 -0.2019  0.2037
   16PEO   H1E911019   2.454   0.920   4.949 -0.9560  2.9131  0.9282
   16PEO   H1EA11020   2.317   0.826   4.888 -2.4205 -0.1302  0.7765
   16PEO   O1EB11021   2.267   1.021   4.902  0.1136 -0.0725  0.0039
   16PEO   H1EC11022   2.416   1.177   4.905 -1.2097  0.5047 -0.8949
   16PEO   H1ED11023   2.323   1.153   5.057 -0.6644 -0.9942  0.2437
   16PEO   C1EE11024   2.319   1.147   4.947 -0.4887 -0.3761  0.2001
   16PEO   C1EF11025   2.226   1.264   4.907  0.0409 -0.6032  0.9637
   16PEO   H1F011026   2.254   1.295   4.805 -0.3915  1.2674  1.3840
   16PEO   H1F111027   2.121   1.236   4.923 -0.9967  2.2259 -0.2790
   16PEO   O1F211028   2.260   1.377   4.989 -0.7824 -0.1915 -0.6367
   16PEO   H1F311029   2.219   1.496   4.839 -1.1414  1.8924 -0.8842
   16PEO   H1F411030   2.267   1.591   4.986  0.1417  0.0743  0.8251
   16PEO   C1F511031   2.209   1.506   4.948 -0.1309  0.9016 -0.6793
   16PEO   C1F611032   2.066   1.535   4.987  0.5069  0.4606  0.2848
   16PEO   H1F711033   2.059   1.549   5.096 -2.6810 -0.7037  0.3470
   16PEO   H1F811034   2.039   1.634   4.948  1.7993 -0.0465 -2.1005
   16PEO   O1F911035   1.975   1.429   4.944 -0.9332  0.1739  0.6328
   16PEO   H1FA11036   1.818   1.525   4.846  2.3008  0.7395 -0.3320
   16PEO   H1FB11037   1.793   1.525   5.018  1.8820 -0.8177  2.3044
   16PEO   C1FC11038   1.836   1.465   4.936  0.3101  0.8277  0.1699
   16PEO   C1FD11039   1.750   1.342   4.935 -0.5092 -0.3992 -0.0059
   16PEO   H1FE11040   1.645   1.375   4.937 -0.3683  0.0778  1.8374
   16PEO   H1FF11041   1.763   1.293   4.838 -1.0903  1.1596 -0.8997
   16PEO   O20011042   1.786   1.257   5.043  0.0681 -0.2485 -0.1767
   16PEO   H20111043   1.771   1.061   5.115 -2.8694 -0.3533  0.2661
   16PEO   H20211044   1.842   1.074   4.951  1.0907  3.0934 -0.8116
   16PEO   C20311045   1.763   1.111   5.017  0.3224  0.0721  0.1020
   16PEO   C20411046   1.619   1.083   4.948 -0.5081 -0.7926  0.4322
   16PEO   H20511047   1.602   1.154   4.865  0.2839 -1.4083 -0.2664
   16PEO   H20611048   1.611   0.982   4.907  1.2020  0.4646 -3.4596
   16PEO   O20711049   1.517   1.121   5.042  0.5745 -0.1299  0.2690
   16PEO   H20811050   1.404   0.958   4.967  1.3061 -0.0169  0.9500
   16PEO   H20911051   1.343   1.116   4.922  1.5798  1.5561 -0.6591
   16PEO   C20A11052   1.391   1.061   5.004 -0.3356  0.2754 -0.3186
   16PEO   C20B11053   1.293   1.036   5.125 -0.6777  0.3614 -0.4365
   16PEO   H20C11054   1.260   0.931   5.116  0.0031 -0.0047  1.1359
   16PEO   H20D11055   1.349   1.058   5.217 -0.1982  0.6401 -0.7879
   16PEO   O20E11056   1.180   1.121   5.125 -0.0925 -0.2484  1.1098
   16PEO   H20F11057   1.092   1.060   5.308 -0.0923  3.1385  0.8434
   16PEO   H21011058   1.026   0.970   5.169 -0.4475 -1.4366  2.2384
   16PEO   C21111059   1.067   1.067   5.201 -0.1398 -0.9251  0.4194
   16PEO   C21211060   0.954   1.182   5.194 -0.1198  0.0843 -0.1553
   16PEO   H21311061   0.947   1.219   5.091  0.1141  0.2829 -0.1005
   16PEO   H21411062   0.859   1.141   5.232 -1.0563  1.8179 -0.5452
   16PEO   O21511063   0.993   1.276   5.298  0.2980 -0.3359  0.3660
   16PEO   H21611064   0.793   1.309   5.370  1.6182 -2.1950 -0.2024
   16PEO   H21711065   0.858   1.409   5.237  1.8657 -4.0585 -1.9776
   16PEO   C21811066   0.883   1.360   5.332  0.8307 -0.1706  0.5122
   16PEO   C21911067   0.928   1.465   5.428  0.5996  0.4780  0.6463
   16PEO   H21A11068   1.030   1.490   5.397  0.2286  0.3408 -0.7687
   16PEO   H21B11069   0.863   1.553   5.426 -1.5328 -0.9810 -2.0672
   16PEO   O21C11070   0.941   1.407   5.560  0.5474 -0.5304  0.2122
   16PEO   H21D11071   0.921   1.584   5.649 -2.4876 -0.7187  0.5874
   16PEO   H21E11072   1.089   1.530   5.651  0.6217  0.6502  3.5310
   16PEO   C21F11073   0.985   1.495   5.660  0.1005  0.9806  0.0965
   16PEO   C22011074   0.954   1.437   5.795 -0.4876  0.1346 -0.6718
   16PEO   H22111075   0.977   1.331   5.808 -4.4124 -0.9263 -1.0716
   16PEO   H22211076   1.016   1.497   5.864 -2.4999  2.3967 -0.6796
   16PEO   O22311077   0.818   1.460   5.832  0.2794 -0.1453 -0.0473
   16PEO   H22411078   0.676   1.301   5.838 -1.0307 -1.2393  0.2417
   16PEO   H22511079   0.756   1.327   5.683 -0.2721  0.4551 -1.1213
   16PEO   C22611080   0.711   1.379   5.769 -0.0058 -1.5953  0.3340
   16PEO   C22711081   0.600   1.476   5.721  0.6715  0.6081  0.4521
   16PEO   H22811082   0.518   1.410   5.689  2.3372 -1.0101 -0.7032
   16PEO   H22911083   0.575   1.525   5.816 -0.2607 -0.1583  0.6144
   16PEO   O22A11084   0.648   1.562   5.619  0.3772 -0.1122 -0.3815
   16PEO   H22B11085   0.451   1.589   5.525 -0.2595  1.3510 -0.4031
   16PEO   H22C11086   0.579   1.700   5.475 -2.0719  2.4923  0.3702
   16PEO   C22D11087   0.540   1.642   5.560  0.0763  0.4814  0.0893
   16PEO   C22E11088   0.496   1.750   5.661  0.2203  0.6357 -0.8539
   16PEO   H22F11089   0.581   1.768   5.728  0.3303  1.2574 -1.1516
   16PEO   H23011090   0.472   1.838   5.599  0.1183 -0.5442 -2.5768
   16PEO   O23111091   0.376   1.696   5.722 -0.0623  0.6554  1.0585
   16PEO   H23211092   0.318   1.882   5.802 -0.4714  0.5397  0.1419
   16PEO   H23311093   0.346   1.748   5.925  4.3582 -1.2986 -2.2798
   16PEO   C23411094   0.309   1.775   5.825 -0.8272  0.4863 -0.2273
   16PEO   C23511095   0.166   1.745   5.818  0.7651 -0.3461  0.1619
   16PEO   H23611096   0.106   1.800   5.892  0.9056 -2.0650  1.6334
   16PEO   H23711097   0.128   1.766   5.716  1.5976  3.6698  0.5150
   16PEO   O23811098   0.141   1.606   5.846 -0.9878  0.5084 -0.0413
   16PEO   H23911099  -0.065   1.590   5.781 -3.1984  0.1550  3.0086
   16PEO   H23A11100  -0.039   1.636   5.952  1.0745 -2.2785  2.2924
   16PEO   C23B11101   0.001   1.577   5.868  0.1973 -0.4640  0.5140
   16PEO   C23C11102  -0.019   1.424   5.906 -0.3375 -0.6715  0.3821
   16PEO   H23D11103  -0.124   1.413   5.938 -0.7320 -0.6171 -0.8567
   16PEO   H23E11104  -0.003   1.362   5.817 -3.0784 -1.2175  0.1802
   16PEO   O23F11105   0.069   1.389   6.020 -0.4542 -0.1834  0.7005
   16PEO   H24011106   0.223   1.372   5.878 -1.5999  2.0364 -0.0212
   16PEO   H24111107   0.174   1.227   5.952 -4.0623  1.2244 -1.7575
   16PEO   C24211108   0.193   1.333   5.976  0.8117  0.2086  0.0935
   16PEO   C24311109   0.314   1.365   6.066  1.1017  0.8287 -0.5821
   16PEO   H24411110   0.400   1.372   5.998  2.6332  0.9833  1.2706
   16PEO   H24511111   0.295   1.458   6.121 -1.4176  0.2117 -0.2514
   16PEO   O24611112   0.333   1.256   6.166 -0.1544  0.4103  0.8825
   16PEO   H24711113   0.145   1.220   6.233  0.1313 -2.2556  0.0831
   16PEO   H24811114   0.219   1.367   6.302  0.4994 -0.6112  0.9832
   16PEO   C24911115   0.238   1.262   6.274 -0.7915 -0.8044  0.7645
   16PEO   C24A11116   0.289   1.180   6.390 -0.7606  0.1519  0.3695
   16PEO   H24B11117   0.217   1.174   6.473 -0.3117  3.1182  1.0807
   16PEO   H24C11118   0.320   1.079   6.359  1.2185  1.3628 -1.9656
   16PEO   O24D11119   0.412   1.248   6.428  0.3251  0.0990  0.5601
   16PEO   H24E11120   0.582   1.195   6.545 -0.1190  0.4150  2.2228
   16PEO   H24F11121   0.451   1.071   6.547 -2.6400  0.9136 -1.5035
   16PEO   C25011122   0.473   1.178   6.546 -0.1719  0.5297  0.6726
   16PEO   C25111123   0.426   1.250   6.674  1.0036  0.2458  0.4114
   16PEO   H25211124   0.496   1.243   6.758  3.1937 -0.9829 -1.4100
   16PEO   H25311125   0.415   1.359   6.664  2.5207  0.2792 -1.2854
   16PEO   O25411126   0.301   1.185   6.709  0.4563 -0.0886  0.1256
   16PEO   H25511127   0.256   1.361   6.830 -1.5379  2.0644  0.5701
   16PEO   H25611128   0.190   1.209   6.881  3.0495  2.1850  1.5402
   16PEO   C25711129   0.208   1.270   6.791  0.3841  1.1727  0.2085
   16PEO   C25811130   0.087   1.309   6.707 -0.1542 -0.3977  0.5044
   16PEO   H25911131   0.026   1.221   6.683 -1.9647  0.3127  2.1572
   16PEO   H25A11132   0.016   1.379   6.754  0.4784 -0.2530  1.2611
   16PEO   O25B11133   0.130   1.386   6.593 -0.0773 -0.3557  0.0445
   16PEO   H25C11134   0.268   1.542   6.649  0.8317 -0.7022 -0.3953
   16PEO   H25D11135   0.097   1.599   6.643  1.3306  0.3813  0.8706
   16PEO   C25E11136   0.171   1.531   6.598  0.4726 -0.0897  0.1411
   16PEO   C25F11137   0.198   1.584   6.455 -0.0773 -0.5594 -0.0734
   16PEO   H26011138   0.304   1.560   6.438  0.3279  2.0325 -1.7966
   16PEO   H26111139   0.139   1.530   6.380 -0.0480 -0.4109 -0.2024
   16PEO   O26211140   0.183   1.723   6.453 -0.1832  0.1163  0.0923
   16PEO   H26311141   0.296   1.738   6.282  1.2200  0.1979  2.5043
   16PEO   H26411142   0.220   1.886   6.339 -1.1969  0.8459 -0.3473
   16PEO   C26511143   0.202   1.779   6.322  0.4107  0.4105  0.4744
   16PEO   C26611144   0.082   1.753   6.225 -0.1349 -1.0112 -0.1934
   16PEO   H26711145   0.123   1.785   6.128 -1.8950  1.3723 -0.2337
   16PEO   H26811146   0.052   1.650   6.201 -0.1592 -1.3064  1.0254
   16PEO   O26911147  -0.034   1.830   6.269  0.5422  0.4258 -0.0878
   16PEO   H26A11148  -0.107   1.833   6.071  0.1117 -0.0983 -0.1488
   16PEO   H26B11149  -0.232   1.865   6.185  0.4742  0.1038 -0.8750
   16PEO   C26C11150  -0.143   1.803   6.170  0.0500 -0.6508 -0.3345
   16PEO   C26D11151  -0.189   1.652   6.178 -0.6009 -0.1556  0.4479
   16PEO   H26E11152  -0.289   1.639   6.132  0.0505 -2.3158 -0.4868
   16PEO   H26F11153  -0.114   1.585   6.132 -0.3493  1.0505 -0.9850
   16PEO   O27011154  -0.189   1.625   6.319 -0.2083  0.1750 -0.3326
   16PEO   H27111155  -0.116   1.442   6.288 -1.1360 -0.7285 -1.0544
   16PEO   H27211156  -0.292   1.436   6.334 -0.4630  1.1125 -0.1870
   16PEO   C27311157  -0.195   1.485   6.352  0.0428  0.1017 -0.1307
   16PEO   C27411158  -0.165   1.460   6.503  0.2563 -1.1515  0.1918
   16PEO   H27511159  -0.118   1.362   6.516  0.9067 -0.6147  2.3429
   16PEO   H27611160  -0.111   1.549   6.539  2.1899 -2.7849  1.5200
   16PEO   O27711161  -0.293   1.465   6.571 -0.2882  0.5073  0.1038
   16PEO   H27811162  -0.227   1.483   6.779 -0.0719  0.9180 -0.4847
   16PEO   H27911163  -0.241   1.322   6.714 -2.7837 -1.9354  0.4089
   16PEO   C27A11164  -0.289   1.421   6.712  0.3988 -0.2828  0.1473
   16PEO   C27B11165  -0.432   1.404   6.783 -0.7897 -0.5251 -0.8546
   16PEO   H27C11166  -0.413   1.395   6.891  1.6236  0.9099 -1.0640
   16PEO   H27D11167  -0.484   1.500   6.769 -0.2085 -0.3925 -2.3076
   16PEO   O27E11168  -0.512   1.302   6.725  0.7962 -0.2867  0.0186
   16PEO   H27F11169  -0.639   1.446   6.632 -1.0471  0.7181  0.3974
   16PEO   H28011170  -0.711   1.359   6.769 -1.4396  1.8290 -0.9246
   16PEO   C28111171  -0.641   1.350   6.685  0.2889  0.7585  0.5443
   16PEO   C28211172  -0.679   1.235   6.581 -0.5260  0.1776  0.3235
   16PEO   H28311173  -0.609   1.149   6.583 -1.2608 -0.7069 -3.6373
   16PEO   H28411174  -0.767   1.187   6.624 -0.9375  0.9109  0.3164
   16PEO   O28511175  -0.684   1.278   6.443 -0.0944 -0.6130  0.6383
   16PEO   H28611176  -0.512   1.211   6.341  1.7482  0.5152 -1.0420
   16PEO   H28711177  -0.489   1.345   6.457  0.2444  0.2954 -0.5156
   16PEO   C28811178  -0.557   1.303   6.382  0.2742 -0.6258 -0.0321
   16PEO   C28911179  -0.569   1.376   6.254  0.4592 -1.1144  0.2045
   16PEO   H28A11180  -0.475   1.367   6.199  0.8046  1.2473  0.3206
   16PEO   H28B11181  -0.648   1.324   6.198 -0.3669 -1.6148  1.7661
   16PEO   O28C11182  -0.618   1.513   6.276 -0.2303  0.2093  0.1996
   16PEO   H28D11183  -0.426   1.592   6.311 -0.1170  0.5070 -2.4598
   16PEO   H28E11184  -0.545   1.572   6.449 -0.3381 -3.3596 -0.9647
   16PEO   C28F11185  -0.531   1.599   6.344  0.5824  0.4286 -0.0114
   16PEO   C29011186  -0.567   1.743   6.312 -0.0479  0.0569  0.3151
   16PEO   H29111187  -0.675   1.754   6.331  0.0514 -1.4884  1.9952
   16PEO   H29211188  -0.515   1.815   6.377  0.8050 -1.5413  1.4637
   16PEO   O29311189  -0.540   1.772   6.173 -0.5169  0.3005 -0.3008
   16PEO   H29411190  -0.535   1.975   6.173  1.0481 -1.6885  2.5217
   16PEO   H29511191  -0.703   1.905   6.202 -0.1213 -4.5764  0.8654
   16PEO   C29611192  -0.609   1.897   6.146  0.2046 -0.2653  0.5156
   16PEO   C29711193  -0.637   1.913   5.989 -0.7622  0.1005 -0.0106
   16PEO   H29811194  -0.672   1.815   5.954 -1.0015  0.1227  0.1633
   16PEO   H29911195  -0.707   1.995   5.965  2.1675  1.8107 -3.8353
   16PEO   O29A11196  -0.510   1.942   5.921  0.2671 -0.3417  0.1325
   16PEO   H29B11197  -0.543   2.116   5.801 -0.4973  0.6864  0.8898
   16PEO   H29C11198  -0.564   1.974   5.714  0.8941 -0.9562  0.2871
   16PEO   C29D11199  -0.506   2.012   5.799 -0.3632  0.7414  0.4226
   16PEO   C29E11200  -0.351   2.013   5.762  0.6281 -0.4516  0.5255
   16PEO   H29F11201  -0.312   1.913   5.789  0.9771 -0.3423  0.4281
   16PEO   H2A011202  -0.326   2.023   5.656 -0.0074  0.6667  0.4675
   16PEO   O2A111203  -0.275   2.104   5.844 -0.7339  0.6415  0.1889
   16PEO   H2A211204  -0.388   2.270   5.788 -0.5853  1.0248  1.8052
   16PEO   H2A311205  -0.250   2.246   5.697 -1.0234 -0.8289  0.0688
   16PEO   C2A411206  -0.285   2.232   5.800 -0.7544  0.0092  0.2900
   16PEO   C2A511207  -0.208   2.321   5.904 -0.2851  0.5619 -0.1180
   16PEO   H2A611208  -0.116   2.277   5.943 -1.4687 -1.1594  0.8583
   16PEO   H2A711209  -0.190   2.422   5.864 -0.5717 -0.1682 -2.2272
   16PEO   O2A811210  -0.279   2.338   6.027  0.0606  0.7429  0.0781
   16PEO   H2A911211  -0.358   2.494   6.145 -0.2481  1.6265  0.1239
   16PEO   H2AA11212  -0.181   2.508   6.092 -0.6326 -0.5301 -0.1032
   16PEO   C2AB11213  -0.264   2.443   6.119 -1.1581  0.0842 -0.2105
   16PEO   C2AC11214  -0.210   2.388   6.258 -0.1617  0.2196  0.3905
   16PEO   H2AD11215  -0.124   2.322   6.241 -0.6481 -0.3615  0.1500
   16PEO   H2AE11216  -0.171   2.472   6.316  0.6778 -0.4706  0.8524
   16PEO   O2AF11217  -0.321   2.322   6.325  0.2763  0.2712 -0.4928
   16PEO   H2B011218  -0.257   2.134   6.269 -0.1313 -1.6029  0.8359
   16PEO   H2B111219  -0.396   2.192   6.173  2.8238  1.9683 -1.2473
   16PEO   C2B211220  -0.350   2.192   6.273  0.4507 -0.5706 -0.0232
   16PEO   C2B311221  -0.446   2.118   6.369 -0.5232  0.7674 -0.5295
   16PEO   H2B411222  -0.427   2.011   6.348  2.8195  1.1298  0.0078
   16PEO   H2B511223  -0.409   2.136   6.471  1.1161  2.5486 -1.3772
   16PEO   O2B611224  -0.583   2.148   6.351  0.3225  0.0160  0.0885
   16PEO   H2B711225  -0.628   1.996   6.490  0.9426 -0.0072 -0.6841
   16PEO   H2B811226  -0.765   2.045   6.395  1.5731  0.8750 -2.3774
   16PEO   C2B911227  -0.676   2.085   6.445  0.3848  0.2732  0.4246
   16PEO   C2BA11228  -0.709   2.183   6.552 -0.2636  0.5376 -0.0911
   16PEO   H2BB11229  -0.727   2.113   6.635  1.7724 -2.5607 -2.0445
   16PEO   H2BC11230  -0.624   2.246   6.581  0.1752 -1.1620  2.6057
   16PEO   O2BD11231  -0.820   2.266   6.529 -0.1861  0.4605 -0.9960
   16PEO   H2BE11232  -0.799   2.360   6.543 -1.0641  0.5749 -0.3338
   17PEO   H00111233   0.745   2.208   3.906  1.6450  0.2670  2.7011
   17PEO   H00211234   0.839   2.220   3.754  0.5562 -3.8438 -0.7256
   17PEO   H00311235   0.899   2.116   3.887 -1.2614 -1.1556  3.7852
   17PEO   C00411236   0.847   2.209   3.863  0.4813 -1.0294 -0.3737
   17PEO   C00511237   0.929   2.320   3.926  0.0246 -0.4939 -0.2913
   17PEO   H00611238   0.866   2.409   3.927  0.5400 -0.1158 -0.7626
   17PEO   H00711239   0.954   2.281   4.026  0.7339 -1.5536 -0.8556
   17PEO   O00811240   1.058   2.344   3.860  0.5324 -0.1449 -0.0523
   17PEO   H00911241   1.247   2.416   3.892  1.1931  1.9983  0.8580
   17PEO   H00A11242   1.158   2.413   4.046  2.3128  2.1162  0.4789
   17PEO   C00B11243   1.148   2.429   3.938  0.4984 -0.5478  0.1774
   17PEO   C00C11244   1.112   2.575   3.923  0.1693 -0.2122  0.0403
   17PEO   H00D11245   1.203   2.629   3.951  0.4787 -1.1268  0.8598
   17PEO   H00E11246   1.087   2.603   3.820 -1.9737 -0.3458  0.4813
   17PEO   O00F11247   1.001   2.605   4.003 -0.0352 -0.0476 -0.5842
   17PEO   H01011248   0.904   2.759   3.903  2.6876 -0.2905 -0.8528
   17PEO   H01111249   1.050   2.805   3.993  0.0490  0.4502  2.7202
   17PEO   C01211250   0.961   2.740   3.996  0.3118 -0.0649  0.7428
   17PEO   C01311251   0.877   2.773   4.118 -0.2304  0.3275 -0.0217
   17PEO   H01411252   0.807   2.854   4.092  2.8959  2.3200 -3.2079
   17PEO   H01511253   0.826   2.683   4.155  0.6548 -0.1745  0.0118
   17PEO   O01611254   0.957   2.813   4.229  0.2079 -0.1761 -0.5950
   17PEO   H01711255   0.986   2.836   4.423  0.4184  0.4497 -0.7116
   17PEO   H01811256   0.810   2.781   4.382 -1.0725  0.7406  0.2721
   17PEO   C01911257   0.898   2.844   4.358 -0.3557 -0.2469  0.2310
   17PEO   C01A11258   0.858   2.996   4.377 -0.4660 -0.3066  0.0747
   17PEO   H01B11259   0.839   3.013   4.484  0.6419  1.5553  0.0108
   17PEO   H01C11260   0.944   3.063   4.362 -1.5586  1.2949  0.5873
   17PEO   O01D11261   0.741   3.028   4.299 -0.9207  0.3354  0.0818
   17PEO   H01E11262   0.593   3.166   4.246 -0.7592  1.6370  0.2173
   17PEO   H01F11263   0.726   3.227   4.344 -0.1540 -0.6011  0.6476
   17PEO   C02011264   0.660   3.140   4.329 -0.1870 -0.3489 -0.8220
   17PEO   C02111265   0.568   3.118   4.455 -0.0093 -0.2941  0.4512
   17PEO   H02211266   0.501   3.205   4.461 -1.0664 -1.0584  0.0083
   17PEO   H02311267   0.501   3.031   4.449 -0.8092  0.2989  0.7401
   17PEO   O02411268   0.649   3.110   4.572 -0.0227 -0.6217 -0.0751
   17PEO   H02511269   0.498   3.047   4.710  1.5177 -1.7025  1.1253
   17PEO   H02611270   0.538   3.217   4.703 -0.0568 -0.4068  3.2951
   17PEO   C02711271   0.583   3.117   4.698  0.2605 -0.1966  0.5993
   17PEO   C02811272   0.687   3.114   4.805  0.1383  0.7243  0.0934
   17PEO   H02911273   0.632   3.095   4.898 -0.1662  0.7816 -0.0746
   17PEO   H02A11274   0.758   3.033   4.781 -0.0868  0.5233  0.1004
   17PEO   O02B11275   0.767   3.239   4.801  0.0596 -0.8358 -0.6943
   17PEO   H02C11276   0.940   3.136   4.714 -1.5486 -1.0109  0.9599
   17PEO   H02D11277   0.958   3.190   4.890 -0.4515  2.0958  0.6795
   17PEO   C02E11278   0.916   3.211   4.790  0.6595  0.8742 -0.0760
   17PEO   C02F11279   0.967   3.344   4.747 -0.6317 -0.1946  0.6556
   17PEO   H03011280   0.964   3.355   4.638 -1.9015 -1.9691  0.4753
   17PEO   H03111281   0.905   3.427   4.783  2.0349  2.3102 -0.0744
   17PEO   O03211282   1.099   3.346   4.810 -0.5065  0.2002  0.6008
   17PEO   H03311283   1.273   3.466   4.807 -1.3883  0.4825 -0.1836
   17PEO   H03411284   1.142   3.510   4.695 -1.2888 -0.1002  0.5802
   17PEO   C03511285   1.194   3.425   4.742 -0.8342 -0.3402 -0.3491
   17PEO   C03611286   1.262   3.337   4.644 -0.7413  0.2871 -0.0443
   17PEO   H03711287   1.362   3.376   4.621 -0.1159 -1.1897  0.0351
   17PEO   H03811288   1.272   3.237   4.691 -1.4553  1.0544  1.8530
   17PEO   O03911289   1.174   3.330   4.526 -0.2412 -0.3541 -0.0622
   17PEO   H03A11290   1.309   3.211   4.429  1.7346  0.5616 -0.3571
   17PEO   H03B11291   1.312   3.386   4.389  2.5506 -1.0743  3.4396
   17PEO   C03C11292   1.247   3.300   4.411  0.1979 -0.4819 -0.4361
   17PEO   C03D11293   1.148   3.278   4.298 -0.6645  0.8857 -0.1944
   17PEO   H03E11294   1.202   3.251   4.206 -1.9825  0.3492 -0.8496
   17PEO   H03F11295   1.071   3.206   4.329  0.0055 -0.0922 -0.7383
   17PEO   O04011296   1.078   3.398   4.288 -0.8377 -0.3644 -0.2421
   17PEO   H04111297   0.907   3.479   4.227  0.5418  0.7518  0.0693
   17PEO   H04211298   0.947   3.308   4.162  1.6157 -0.7091 -1.2011
   17PEO   C04311299   0.981   3.410   4.183 -0.6002 -0.0019 -0.7567
   17PEO   C04411300   1.048   3.484   4.066  0.8423 -0.6815  0.4326
   17PEO   H04511301   1.149   3.441   4.056  1.6006  1.1355 -0.1699
   17PEO   H04611302   0.993   3.471   3.972  2.7998  0.9447 -1.0335
   17PEO   O04711303   1.056   3.618   4.111 -0.3322  0.1272  0.0365
   17PEO   H04811304   1.252   3.607   4.049  0.0586 -1.0011 -2.1838
   17PEO   H04911305   1.211   3.762   4.113 -1.1898 -1.6675  2.0266
   17PEO   C04A11306   1.174   3.684   4.046  0.3127 -0.6118 -0.1562
   17PEO   C04B11307   1.139   3.729   3.899  0.3709  1.0428 -0.1905
   17PEO   H04C11308   1.036   3.767   3.897  0.0296  0.2713  1.3772
   17PEO   H04D11309   1.202   3.807   3.853  0.8805  0.7990  0.0762
   17PEO   O04E11310   1.152   3.609   3.818 -0.0314 -0.0288 -0.1416
   17PEO   H04F11311   1.230   3.690   3.647  0.4475  0.1487  0.4583
   17PEO   H05011312   1.061   3.709   3.660  2.4125  1.6840 -0.9645
   17PEO   C05111313   1.141   3.637   3.684  0.5499 -0.0450  0.4313
   17PEO   C05211314   1.120   3.512   3.590 -0.1262 -0.2890 -0.2483
   17PEO   H05311315   1.039   3.444   3.621 -0.5691  1.0489  1.7659
   17PEO   H05411316   1.082   3.542   3.491 -1.4446 -2.0127 -0.3098
   17PEO   O05511317   1.248   3.444   3.570  0.8642  0.1526 -0.8713
   17PEO   H05611318   1.203   3.386   3.378 -0.7240 -0.3102 -0.0753
   17PEO   H05711319   1.163   3.264   3.504 -1.1476  2.3087  1.0694
   17PEO   C05811320   1.238   3.336   3.469  0.0979  0.6400  0.1414
   17PEO   C05911321   1.381   3.278   3.460  0.5534 -0.8884  0.4903
   17PEO   H05A11322   1.403   3.227   3.365  0.0170  0.1127 -0.1984
   17PEO   H05B11323   1.449   3.364   3.474 -1.0531  0.8155 -1.4443
   17PEO   O05C11324   1.409   3.178   3.563 -0.2185 -0.2802 -0.0342
   17PEO   H05D11325   1.559   3.097   3.683  2.4024 -2.5536 -2.2926
   17PEO   H05E11326   1.575   3.271   3.641 -1.3218  1.3076 -1.0489
   17PEO   C05F11327   1.545   3.172   3.603 -0.0145  0.2631  0.4859
   17PEO   C06011328   1.632   3.122   3.491  0.5463  0.0950 -0.1043
   17PEO   H06111329   1.633   3.196   3.410 -0.6185  0.3139  0.0635
   17PEO   H06211330   1.738   3.104   3.515  0.3019 -0.6920  0.4330
   17PEO   O06311331   1.582   2.993   3.453 -0.3778  0.2360  1.1441
   17PEO   H06411332   1.729   2.915   3.315 -0.1079 -0.8275  0.9519
   17PEO   H06511333   1.611   3.028   3.244  2.1434 -0.0028 -0.8124
   17PEO   C06611334   1.624   2.948   3.318 -0.0186 -0.2930 -0.6773
   17PEO   C06711335   1.534   2.834   3.275  0.4919 -0.1541 -0.0784
   17PEO   H06811336   1.579   2.766   3.201 -0.6570 -4.7694  2.9772
   17PEO   H06911337   1.521   2.779   3.370  1.3795 -1.9529 -0.9465
   17PEO   O06A11338   1.408   2.891   3.232 -0.2522  0.4597  0.1240
   17PEO   H06B11339   1.220   2.818   3.203  1.3137 -0.6769  1.7095
   17PEO   H06C11340   1.349   2.687   3.213 -1.9462 -1.2111 -1.1438
   17PEO   C06D11341   1.322   2.787   3.175  0.6485 -0.4892 -1.2807
   17PEO   C06E11342   1.331   2.792   3.022 -0.3141 -0.1336  0.1052
   17PEO   H06F11343   1.235   2.760   2.980 -1.0453  0.7556  1.0511
   17PEO   H07011344   1.362   2.893   2.991 -0.9509  0.3776  1.0853
   17PEO   O07111345   1.438   2.713   2.976  0.0090 -0.1093 -0.1443
   17PEO   H07211346   1.368   2.537   2.891 -1.5182  1.8515 -0.3103
   17PEO   H07311347   1.375   2.544   3.064  0.5096  0.4518  0.4496
   17PEO   C07411348   1.431   2.574   2.974 -0.3545 -0.0675 -0.2755
   17PEO   C07511349   1.570   2.515   2.990  0.1671  0.1969 -0.5614
   17PEO   H07611350   1.566   2.406   2.971  0.2821  0.2601 -0.9732
   17PEO   H07711351   1.634   2.568   2.917  0.8903 -0.5114 -0.4619
   17PEO   O07811352   1.624   2.530   3.124  0.0422  0.7012  0.6311
   17PEO   H07911353   1.814   2.559   3.064 -0.5124 -1.0691 -1.6453
   17PEO   H07A11354   1.746   2.382   3.072 -2.0843  0.6668 -0.7323
   17PEO   C07B11355   1.756   2.482   3.117  0.1580 -0.0976  0.6057
   17PEO   C07C11356   1.816   2.470   3.262 -0.6676  0.3011 -0.0220
   17PEO   H07D11357   1.755   2.397   3.316  2.9603 -0.9408  2.7711
   17PEO   H07E11358   1.919   2.436   3.243 -0.1726  0.9668  1.3849
   17PEO   O07F11359   1.826   2.598   3.320  0.3102 -0.2118  0.7863
   17PEO   H08011360   1.982   2.571   3.471  0.7423 -0.4729 -1.5122
   17PEO   H08111361   1.826   2.493   3.509  2.0477 -0.3747  1.6051
   17PEO   C08211362   1.873   2.580   3.461  0.5767 -0.2993  0.2219
   17PEO   C08311363   1.823   2.710   3.540 -0.1770  0.1645 -0.1593
   17PEO   H08411364   1.736   2.764   3.499 -1.3026  0.2514  2.1732
   17PEO   H08511365   1.784   2.687   3.640 -1.6322  2.0521 -0.2362
   17PEO   O08611366   1.931   2.806   3.562 -1.0161 -0.2933 -0.1724
   17PEO   H08711367   1.914   2.989   3.474 -1.7573 -0.8141  1.6816
   17PEO   H08811368   1.939   2.868   3.354 -1.2718 -0.5678  0.8233
   17PEO   C08911369   1.970   2.896   3.456 -0.7001  0.0161  0.4980
   17PEO   C08A11370   2.127   2.924   3.459  0.3207  0.2469  0.5963
   17PEO   H08B11371   2.146   3.016   3.516  1.0666  0.0653  0.6461
   17PEO   H08C11372   2.183   2.840   3.501  0.6378 -0.2230 -0.7241
   17PEO   O08D11373   2.164   2.942   3.326  0.3268  0.7252 -0.6186
   17PEO   H08E11374   2.376   2.956   3.357 -1.6700 -0.8899  0.6180
   17PEO   H08F11375   2.273   3.093   3.404 -3.4600  1.1328 -1.0364
   17PEO   C09011376   2.288   3.014   3.327 -0.5338  0.5638 -0.0302
   17PEO   C09111377   2.314   3.064   3.182  0.0253 -0.3149 -0.4694
   17PEO   H09211378   2.223   3.113   3.144  0.2105  0.2792 -0.1626
   17PEO   H09311379   2.397   3.135   3.183  2.0691 -2.5779  0.1547
   17PEO   O09411380   2.355   2.953   3.097  0.2656 -0.3611 -0.0204
   17PEO   H09511381   2.466   3.065   2.957  0.0527 -0.3434  0.2085
   17PEO   H09611382   2.292   3.029   2.915 -0.3118 -0.9584 -0.9796
   17PEO   C09711383   2.384   2.992   2.963 -0.2291 -0.0913 -0.4513
   17PEO   C09811384   2.423   2.863   2.889  0.0305 -0.1839  0.3932
   17PEO   H09911385   2.347   2.783   2.897  0.2302 -0.2497  1.9911
   17PEO   H09A11386   2.431   2.872   2.780 -1.2496  0.8326  0.3651
   17PEO   O09B11387   2.552   2.815   2.935 -0.3768  0.1111 -1.0019
   17PEO   H09C11388   2.534   2.678   2.774  0.0809  2.8504 -1.1830
   17PEO   H09D11389   2.508   2.600   2.910 -0.5844  1.4093  0.5225
   17PEO   C09E11390   2.577   2.679   2.875  0.2672 -0.0063 -1.1523
   17PEO   C09F11391   2.728   2.632   2.889 -0.1732 -0.7385  0.0694
   17PEO   H0A011392   2.756   2.642   2.995  1.5579 -1.4546 -0.2917
   17PEO   H0A111393   2.731   2.523   2.877 -0.3644 -1.2186  3.3931
   17PEO   O0A211394   2.812   2.705   2.803 -0.1224  0.1993 -0.5036
   17PEO   H0A311395   2.686   2.692   2.643 -0.8009 -2.0110  0.5703
   17PEO   H0A411396   2.816   2.577   2.628  2.5947 -0.1821  0.7030
   17PEO   C0A511397   2.793   2.679   2.662 -0.3210 -0.2838 -0.6204
   17PEO   C0A611398   2.880   2.774   2.573  0.9112  0.8274 -0.2534
   17PEO   H0A711399   2.843   2.753   2.471 -0.9126  2.0596  0.1189
   17PEO   H0A811400   2.859   2.875   2.611  1.4332  0.0296  2.3945
   17PEO   O0A911401   3.022   2.762   2.597  0.0221  0.1380 -0.5023
   17PEO   H0AA11402   3.045   2.976   2.585 -2.8526 -0.9469 -0.5380
   17PEO   H0AB11403   3.086   2.886   2.447  3.0949 -0.5718  0.2225
   17PEO   C0AC11404   3.097   2.884   2.557 -0.4917 -0.0836  0.7187
   17PEO   C0AD11405   3.247   2.874   2.598  0.3720  0.0983 -0.1406
   17PEO   H0AE11406   3.309   2.961   2.570  0.5499 -0.3744 -1.2999
   17PEO   H0AF11407   3.246   2.845   2.704 -1.0637 -1.4089 -0.5175
   17PEO   O0B011408   3.311   2.761   2.529  0.5429 -0.3109 -0.1143
   17PEO   H0B111409   3.486   2.813   2.621  0.5690  0.6370 -2.3067
   17PEO   H0B211410   3.491   2.661   2.519 -0.1239 -0.5638  0.9205
   17PEO   C0B311411   3.431   2.723   2.588 -0.2341  0.1039  0.2424
   17PEO   C0B411412   3.403   2.646   2.717  0.2479  0.1002 -0.9805
   17PEO   H0B511413   3.298   2.611   2.711 -0.4032  2.0328 -1.6386
   17PEO   H0B611414   3.463   2.554   2.717 -0.2750 -0.3059 -2.9556
   17PEO   O0B711415   3.430   2.723   2.836 -0.1088 -0.2056  0.4325
   17PEO   H0B811416   3.430   2.733   3.043 -0.6733  0.7509 -0.6331
   17PEO   H0B911417   3.478   2.577   2.971 -0.3606 -0.1014 -1.7400
   17PEO   C0BA11418   3.407   2.661   2.963  0.0756  0.4060 -0.5399
   17PEO   C0BB11419   3.259   2.621   2.971  0.0466  0.0095 -1.4121
   17PEO   H0BC11420   3.227   2.606   3.076  0.3913 -1.4186 -1.4927
   17PEO   H0BD11421   3.204   2.708   2.931 -0.4133  0.3194 -0.1687
   17PEO   O0BE11422   3.228   2.499   2.894  0.9584 -0.5181 -0.2093
   17PEO   H0BF11423   3.091   2.604   2.789 -3.0586 -0.7563 -0.7542
   17PEO   H0C011424   3.016   2.494   2.912 -1.9194 -1.8689 -1.1680
   17PEO   C0C111425   3.094   2.504   2.836 -0.8407 -0.3729  0.0661
   17PEO   C0C211426   3.072   2.393   2.728 -0.2164 -0.7157  0.7499
   17PEO   H0C311427   2.972   2.418   2.689  0.6062  0.6796 -0.5892
   17PEO   H0C411428   3.152   2.405   2.653 -0.9624  1.0381  0.1882
   17PEO   O0C511429   3.073   2.261   2.776  0.6657  0.1339  0.8929
   17PEO   H0C611430   3.134   2.183   2.586  0.2047 -1.9877 -0.8790
   17PEO   H0C711431   2.968   2.165   2.607  1.1633 -0.8426 -1.7306
   17PEO   C0C811432   3.061   2.160   2.665  0.2889  0.0051 -0.1821
   17PEO   C0C911433   3.084   2.015   2.729 -0.1827 -0.5264  0.8042
   17PEO   H0CA11434   3.029   1.996   2.823 -1.0737 -0.4856  0.3021
   17PEO   H0CB11435   3.056   1.936   2.657  1.4223 -0.7532  0.4008
   17PEO   O0CC11436   3.228   2.004   2.749 -0.5920 -0.0287 -0.2969
   17PEO   H0CD11437   3.221   2.018   2.955  0.3472  0.3989 -0.3534
   17PEO   H0CE11438   3.256   2.168   2.883 -3.6219 -0.8956 -0.4607
   17PEO   C0CF11439   3.281   2.061   2.874  0.3829 -0.0976 -0.5960
   17PEO   C0D011440   3.428   2.039   2.894 -0.2692  0.4214 -0.2652
   17PEO   H0D111441   3.459   2.100   2.980  1.0983 -1.7915  0.9164
   17PEO   H0D211442   3.440   1.931   2.914  2.5630  0.2734 -2.1319
   17PEO   O0D311443   3.501   2.085   2.775  0.5184  0.3326  0.2291
   17PEO   H0D411444   3.542   2.281   2.852 -2.0952  0.5707 -0.1603
   17PEO   H0D511445   3.393   2.271   2.777  0.6408  0.5470  0.0815
   17PEO   C0D611446   3.495   2.233   2.765  0.0465 -0.9012 -0.5641
   17PEO   C0D711447   3.569   2.263   2.635  0.2574 -0.7137 -0.5318
   17PEO   H0D811448   3.526   2.209   2.548 -2.0794 -0.3874  0.3419
   17PEO   H0D911449   3.573   2.366   2.597 -2.6517 -0.7613 -1.2500
   17PEO   O0DA11450   3.711   2.228   2.642  0.3024  0.1340 -0.4589
   17PEO   H0DB11451   3.751   2.262   2.450 -0.7608 -0.7854 -0.6245
   17PEO   H0DC11452   3.732   2.090   2.485 -0.9108  0.6912  0.8344
   17PEO   C0DD11453   3.776   2.184   2.524  0.2438  0.3869  0.3204
   17PEO   C0DE11454   3.922   2.185   2.555 -0.4176  0.9884  0.0595
   17PEO   H0DF11455   3.976   2.168   2.461 -2.8838  0.4277 -1.3564
   17PEO   H0E011456   3.950   2.279   2.606  0.2983  1.0006 -0.3428
   17PEO   O0E111457   3.950   2.083   2.647 -0.0539 -0.6020  0.2244
   17PEO   H0E211458   4.108   2.188   2.750 -1.6681  0.6916 -0.5785
   17PEO   H0E311459   4.149   2.037   2.666  0.6698  1.3976  1.4270
   17PEO   C0E411460   4.074   2.086   2.729 -0.8189  0.1113  0.7059
   17PEO   C0E511461   4.039   2.014   2.853 -0.2293  0.3066 -0.3549
   17PEO   H0E611462   3.960   1.940   2.833  1.1192 -0.2829 -4.1979
   17PEO   H0E711463   4.126   1.957   2.888  0.6312  0.8013 -1.6290
   17PEO   O0E811464   3.985   2.101   2.959 -0.2035  0.0693 -0.3558
   17PEO   H0E911465   3.795   2.124   2.868 -0.0042  4.4606 -3.1223
   17PEO   H0EA11466   3.901   2.269   2.889  1.0279  1.3307  1.8974
   17PEO   C0EB11467   3.865   2.176   2.935  0.6836  0.3246 -0.2442
   17PEO   C0EC11468   3.805   2.237   3.073 -0.4728 -0.2996  0.7317
   17PEO   H0ED11469   3.892   2.280   3.125 -0.2151  1.4831 -1.0087
   17PEO   H0EE11470   3.742   2.324   3.049  1.9209  0.8863 -1.8464
   17PEO   O0EF11471   3.744   2.140   3.154 -0.0802  0.2390 -0.0979
   17PEO   H0F011472   3.581   2.263   3.207 -1.8561 -0.3676  1.9785
   17PEO   H0F111473   3.720   2.266   3.324 -0.1179 -0.7491  0.9961
   17PEO   C0F211474   3.660   2.204   3.256  0.0240  0.2894 -0.1115
   17PEO   C0F311475   3.585   2.100   3.334  1.3518  0.7941  0.0500
   17PEO   H0F411476   3.649   2.032   3.392  1.6093  0.5531 -0.5160
   17PEO   H0F511477   3.521   2.152   3.407 -0.4743 -0.4790 -0.5934
   17PEO   O0F611478   3.498   2.039   3.241  0.0741  0.2628 -0.3202
   17PEO   H0F711479   3.440   1.905   3.388 -2.2370  0.3046 -0.2215
   17PEO   H0F811480   3.545   1.848   3.259  1.1678  1.0868 -0.9731
   17PEO   C0F911481   3.457   1.909   3.280  0.3320 -0.4002  0.0749
   17PEO   C0FA11482   3.329   1.864   3.211  0.5416 -0.1480  0.7208
   17PEO   H0FB11483   3.329   1.891   3.104 -2.2662  2.8620  1.2955
   17PEO   H0FC11484   3.316   1.756   3.226  1.7348 -0.2529  1.0855
   17PEO   O0FD11485   3.215   1.931   3.263  0.1696 -0.2185  0.3017
   17PEO   H0FE11486   3.083   1.790   3.170 -0.5089 -1.7154  3.2071
   17PEO   H0FF11487   3.074   1.947   3.111 -0.1446  0.0855 -0.1795
   17PEO   C10011488   3.089   1.894   3.206  0.2269 -0.3183 -0.4604
   17PEO   C10111489   2.975   1.942   3.296 -0.2473  1.2617  0.1869
   17PEO   H10211490   2.998   2.043   3.331  0.6784  0.6567  1.4295
   17PEO   H10311491   2.873   1.939   3.254 -1.0221 -1.3174  1.9686
   17PEO   O10411492   2.958   1.858   3.417 -0.0522 -0.7034  0.4879
   17PEO   H10511493   2.760   1.887   3.471 -0.9603  2.3551  1.4757
   17PEO   H10611494   2.866   2.010   3.544  0.1643  0.7689 -2.0393
   17PEO   C10711495   2.862   1.906   3.507  0.0713 -0.0330  0.1014
   17PEO   C10811496   2.888   1.809   3.631 -0.8546 -0.5782 -0.0891
   17PEO   H10911497   2.996   1.797   3.649 -0.1420  3.5517 -0.5517
   17PEO   H10A11498   2.835   1.847   3.720  3.0340  1.5916  1.5862
   17PEO   O10B11499   2.835   1.678   3.591  0.1037 -0.6012  0.2860
   17PEO   H10C11500   2.836   1.579   3.786  1.4702  0.3923  0.8513
   17PEO   H10D11501   2.976   1.561   3.682 -0.3327 -1.8297 -0.7814
   17PEO   C10E11502   2.866   1.570   3.681 -0.1832  1.6188  0.2307
   17PEO   C10F11503   2.793   1.438   3.638 -0.4152  0.1619 -0.1171
   17PEO   H11011504   2.802   1.430   3.528 -0.2377 -0.0124 -0.0894
   17PEO   H11111505   2.834   1.360   3.703 -0.1820  0.9614  0.7222
   17PEO   O11211506   2.658   1.456   3.670 -0.0000 -0.3454  0.6854
   17PEO   H11311507   2.589   1.257   3.681 -0.9889 -1.2194 -0.8716
   17PEO   H11411508   2.550   1.332   3.531 -0.6219 -2.6041  1.2617
   17PEO   C11511509   2.563   1.355   3.638  0.3515 -0.1183  0.6948
   17PEO   C11611510   2.429   1.411   3.692 -0.1576  0.4431  0.3009
   17PEO   H11711511   2.434   1.521   3.686 -0.5916  0.5361  1.4551
   17PEO   H11811512   2.338   1.374   3.641 -0.0774  2.3078 -1.3378
   17PEO   O11911513   2.416   1.403   3.836  0.9063  0.3962 -0.3081
   17PEO   H11A11514   2.208   1.419   3.847  1.5395 -0.1730 -3.1119
   17PEO   H11B11515   2.295   1.575   3.850  0.1327 -0.0918  0.4272
   17PEO   C11C11516   2.299   1.470   3.882  0.5028 -0.2272 -0.0413
   17PEO   C11D11517   2.285   1.475   4.032 -0.5722 -0.1973  0.2387
   17PEO   H11E11518   2.388   1.462   4.070 -1.0014 -3.2954  0.5457
   17PEO   H11F11519   2.233   1.569   4.059 -1.5891 -0.8873  0.7317
   17PEO   O12011520   2.204   1.363   4.071 -0.1999 -0.4358 -0.0908
   17PEO   H12111521   2.317   1.262   4.224  0.0953  0.2260 -0.7743
   17PEO   H12211522   2.151   1.244   4.242  1.5359  1.2607  1.5113
   17PEO   C12311523   2.225   1.320   4.210  0.7150  1.3214 -0.4216
   17PEO   C12411524   2.225   1.443   4.312  0.1230  0.9210 -0.2566
   17PEO   H12511525   2.145   1.513   4.286  0.8650  1.1796 -1.9272
   17PEO   H12611526   2.196   1.391   4.405  1.7020  2.1664  0.9795
   17PEO   O12711527   2.353   1.508   4.326 -0.1066  0.6965  0.5441
   17PEO   H12811528   2.256   1.639   4.437 -0.1394 -3.4938 -0.1226
   17PEO   H12911529   2.308   1.705   4.279  4.1145  1.3558 -0.0647
   17PEO   C12A11530   2.339   1.642   4.364  0.0422 -0.7240  0.1027
   17PEO   C12B11531   2.464   1.701   4.427 -0.4598  0.3314  0.1821
   17PEO   H12C11532   2.557   1.665   4.381 -1.4053 -0.9896 -0.7643
   17PEO   H12D11533   2.457   1.804   4.388 -0.9709 -0.5445 -2.2293
   17PEO   O12E11534   2.463   1.685   4.573  0.2318 -0.3574  0.8830
   17PEO   H12F11535   2.599   1.845   4.574  2.9012  0.2978  1.5663
   17PEO   H13011536   2.670   1.688   4.614  0.6598  0.3148 -0.5986
   17PEO   C13111537   2.579   1.749   4.624  0.3935 -0.1498 -0.0979
   17PEO   C13211538   2.547   1.770   4.775 -1.0305 -0.0978  0.0888
   17PEO   H13311539   2.602   1.857   4.814  1.5248  0.5113 -4.2574
   17PEO   H13411540   2.438   1.783   4.787 -1.1190 -0.0121 -0.7628
   17PEO   O13511541   2.598   1.646   4.842  0.1026  0.3374 -0.3186
   17PEO   H13611542   2.505   1.728   5.018  1.0912 -0.0797  0.1132
   17PEO   H13711543   2.677   1.703   5.030  0.5458  0.3311 -1.0145
   17PEO   C13811544   2.585   1.661   4.985  0.5162 -0.7139 -0.0212
   17PEO   C13911545   2.567   1.524   5.052 -0.0306 -0.1143 -0.3587
   17PEO   H13A11546   2.554   1.529   5.161  2.2877 -0.3975 -0.0324
   17PEO   H13B11547   2.482   1.471   5.006  0.1985 -0.1117 -0.7972
   17PEO   O13C11548   2.677   1.441   5.022 -0.3933  0.5630  0.0443
   17PEO   H13D11549   2.578   1.251   5.060 -0.8819  0.5217  1.3924
   17PEO   H13E11550   2.627   1.340   5.202  3.8258  1.7244  0.8080
   17PEO   C13F11551   2.658   1.316   5.099  0.0744  0.3259 -0.1282
   17PEO   C14011552   2.791   1.242   5.108  0.4118 -0.0900  0.1126
   17PEO   H14111553   2.880   1.303   5.129  0.4462 -0.2954  0.5699
   17PEO   H14211554   2.796   1.167   5.189 -0.1271 -1.1999 -0.8403
   17PEO   O14311555   2.810   1.190   4.970 -0.5972 -0.2383  0.7910
   17PEO   H14411556   2.932   1.348   4.895  0.1463  1.2423 -3.3224
   17PEO   H14511557   2.792   1.316   4.800  3.5990  3.6507 -1.0317
   17PEO   C14611558   2.867   1.265   4.862 -0.1246 -0.3462  0.7130
   17PEO   C14711559   2.950   1.167   4.773 -0.0882 -0.0748  1.0000
   17PEO   H14811560   2.909   1.065   4.774 -1.5173  0.4438 -0.2019
   17PEO   H14911561   2.950   1.199   4.667  0.8134 -2.2521  0.2866
   17PEO   O14A11562   3.079   1.173   4.828  0.8980 -0.1233  1.1249
   17PEO   H14B11563   3.172   1.128   4.648 -0.2208  1.8503  0.4884
   17PEO   H14C11564   3.136   0.991   4.749 -0.6551  0.0362 -1.7200
   17PEO   C14D11565   3.168   1.096   4.753 -0.1892 -0.1479 -0.0864
   17PEO   C14E11566   3.293   1.091   4.829 -0.0812 -0.2911  0.0376
   17PEO   H14F11567   3.260   1.093   4.934  2.7552 -0.3348  1.0226
   17PEO   H15011568   3.344   0.994   4.819  1.8946  0.8752 -2.1310
   17PEO   O15111569   3.387   1.198   4.802 -0.3146  0.6639  0.1415
   17PEO   H15211570   3.571   1.102   4.844 -2.3336 -1.6414 -0.7947
   17PEO   H15311571   3.494   1.137   4.984 -1.4005 -0.1902 -1.0809
   17PEO   C15411572   3.505   1.180   4.884 -0.3548  0.1321 -0.8408
   17PEO   C15511573   3.591   1.308   4.885  0.4694 -0.6549  0.4320
   17PEO   H15611574   3.697   1.293   4.911  1.7491  2.7167 -2.1012
   17PEO   H15711575   3.598   1.349   4.783  1.7904 -4.2359 -1.0534
   17PEO   O15811576   3.529   1.408   4.979  0.2360  0.1836  0.6482
   17PEO   H15911577   3.641   1.558   4.920  3.4754  0.4141  1.5747
   17PEO   H15A11578   3.726   1.459   5.039  0.1217  1.0861  0.1408
   17PEO   C15B11579   3.629   1.506   5.016 -0.8325 -0.4915  0.7698
   17PEO   C15C11580   3.570   1.596   5.121  0.2082  0.1678  0.4494
   17PEO   H15D11581   3.613   1.696   5.108 -0.3216  0.4788  1.0280
   17PEO   H15E11582   3.462   1.603   5.099  0.5806  2.6049 -0.9869
   17PEO   O15F11583   3.591   1.533   5.244 -0.2236 -0.4576 -0.0288
   17PEO   H16011584   3.388   1.566   5.320 -0.3374 -1.3663  0.7455
   17PEO   H16111585   3.516   1.659   5.394 -0.9952 -1.3089  1.5279
   17PEO   C16211586   3.494   1.560   5.350  0.1007 -0.6697 -0.6090
   17PEO   C16311587   3.504   1.460   5.461 -0.6082  0.3835  0.1827
   17PEO   H16411588   3.606   1.425   5.483 -1.3715 -1.3072  1.3097
   17PEO   H16511589   3.492   1.500   5.563  0.4999 -0.6612  0.7605
   17PEO   O16611590   3.412   1.347   5.450 -0.6887  0.0169  1.0363
   17PEO   H16711591   3.459   1.326   5.237  1.1661 -0.3712 -0.1267
   17PEO   H16811592   3.334   1.221   5.298  0.2341 -0.2767  1.3534
   17PEO   C16911593   3.431   1.265   5.325  0.5285 -0.0214 -0.0780
   17PEO   C16A11594   3.536   1.143   5.345 -0.2430 -0.6817 -0.2562
   17PEO   H16B11595   3.508   1.096   5.440  0.8336 -0.1508  0.3485
   17PEO   H16C11596   3.524   1.066   5.268 -0.9150  0.2744 -1.1245
   17PEO   O16D11597   3.673   1.199   5.352  0.5483  0.5521  0.4104
   17PEO   H16E11598   3.759   1.117   5.184  1.5201 -0.5429 -0.2411
   17PEO   H16F11599   3.802   1.021   5.321  2.7515  0.0058 -1.4965
   17PEO   C17011600   3.775   1.124   5.292  0.1806 -0.1797 -0.0506
   17PEO   C17111601   3.899   1.202   5.307  0.7183 -0.4131 -0.0732
   17PEO   H17211602   3.972   1.181   5.228  1.5202  1.4615  0.1352
   17PEO   H17311603   3.878   1.308   5.286  0.8742 -0.3528  0.0729
   17PEO   O17411604   3.954   1.182   5.441  0.1975 -0.0042  0.1354
   17PEO   H17511605   3.795   1.159   5.558  0.1657 -2.3659 -4.6446
   17PEO   H17611606   3.830   1.334   5.517 -0.9191  0.8138  3.1538
   17PEO   C17711607   3.872   1.235   5.540 -0.7746 -0.0043 -0.1170
   17PEO   C17811608   3.949   1.243   5.668  0.3591 -0.5631  0.5256
   17PEO   H17911609   3.887   1.280   5.752 -1.3806 -3.1191  0.4773
   17PEO   H17A11610   3.985   1.142   5.695 -0.5641 -1.3507 -1.0492
   17PEO   O17B11611   4.061   1.337   5.639 -0.5679 -0.0008  0.4489
   17PEO   H17C11612   4.195   1.233   5.764  1.1705  0.4678  1.0787
   17PEO   H17D11613   4.108   1.371   5.831 -1.4862  1.9987 -1.2644
   17PEO   C17E11614   4.158   1.334   5.740 -0.2328 -0.2171  0.2309
   17PEO   C17F11615   4.270   1.432   5.697  0.3491  0.2520 -0.6156
   17PEO   H18011616   4.225   1.522   5.652 -1.1109  0.5967  1.4004
   17PEO   H18111617   4.336   1.454   5.782  1.4225  0.5539 -1.5088
   17PEO   O18211618   4.346   1.376   5.587 -0.2242 -0.1284  0.2086
   17PEO   H18311619   4.523   1.495   5.616 -0.6734 -0.8138  0.4410
   17PEO   H18411620   4.399   1.562   5.498  0.2900  0.5384  0.1491
   17PEO   C18511621   4.448   1.472   5.538 -0.5936  0.0180  0.1114
   17PEO   C18611622   4.527   1.407   5.419 -0.1388  0.2631  0.0911
   17PEO   H18711623   4.460   1.379   5.336  0.2801  0.6458 -0.3889
   17PEO   H18811624   4.582   1.487   5.367 -1.6321  1.9584  1.0085
   17PEO   O18911625   4.614   1.304   5.459 -0.5558 -0.2828 -0.3077
   17PEO   H18A11626   4.770   1.375   5.346  1.2208 -0.5805 -2.5562
   17PEO   H18B11627   4.659   1.251   5.266  0.4883 -2.1641  0.6121
   17PEO   C18C11628   4.713   1.282   5.357 -0.0597  0.4095  0.1364
   17PEO   C18D11629   4.805   1.167   5.393 -0.5992  0.4739  0.1952
   17PEO   H18E11630   4.748   1.083   5.435  0.2350 -0.5538 -0.6741
   17PEO   H18F11631   4.856   1.130   5.302  2.4679  0.0273  1.9668
   17PEO   O19011632   4.915   1.209   5.478 -0.3509 -0.9736 -0.2892
   17PEO   H19111633   4.882   1.097   5.653 -2.3385  1.0231  4.0527
   17PEO   H19211634   4.800   1.250   5.657  0.6459 -0.1847  2.6211
   17PEO   C19311635   4.893   1.202   5.623 -0.0389 -0.0670  0.4252
   17PEO   C19411636   5.010   1.277   5.688  0.3200 -0.1279  0.0294
   17PEO   H19511637   4.994   1.385   5.671 -0.7029 -0.1209  0.9439
   17PEO   H19611638   5.011   1.270   5.797  0.1645 -0.9164 -0.0189
   17PEO   O19711639   5.140   1.231   5.633 -0.1238  0.0793  0.6810
   17PEO   H19811640   5.248   1.381   5.700 -2.2646 -0.1236  0.1991
   17PEO   H19911641   5.343   1.230   5.651 -0.2121 -2.1681  1.7927
   17PEO   C19A11642   5.255   1.272   5.704 -0.0991 -0.0215  0.3975
   17PEO   C19B11643   5.261   1.234   5.851  0.5061 -0.3495  0.6352
   17PEO   H19C11644   5.185   1.160   5.881 -0.9384  1.2031  0.9697
   17PEO   H19D11645   5.363   1.202   5.876  0.6534 -0.5365 -0.1591
   17PEO   O19E11646   5.234   1.357   5.929  0.2372  0.0062  0.1125
   17PEO   H19F11647   5.326   1.324   6.120 -1.2618 -2.6769  1.5672
   17PEO   H1A011648   5.147   1.296   6.112 -0.0829  0.8022  2.2270
   17PEO   C1A111649   5.231   1.358   6.077 -0.1347  0.3769  1.2958
   17PEO   C1A211650   5.199   1.497   6.127  0.1623  1.0945 -0.1148
   17PEO   H1A311651   5.273   1.511   6.206  0.9482 -0.8866 -0.4310
   17PEO   H1A411652   5.202   1.571   6.046 -0.1327  1.3650  0.1221
   17PEO   O1A511653   5.069   1.489   6.185 -0.2408 -0.0702  0.4156
   17PEO   H1A611654   4.915   1.618   6.198  0.4440 -0.0996 -0.6811
   17PEO   H1A711655   5.068   1.698   6.172 -1.7880  0.0161 -2.6398
   17PEO   C1A811656   5.022   1.614   6.226  0.4234  0.0037 -0.5907
   17PEO   C1A911657   5.021   1.636   6.373  0.0655  0.0903 -0.6208
   17PEO   H1AA11658   4.941   1.709   6.387 -0.2598 -0.0158 -1.7941
   17PEO   H1AB11659   4.996   1.537   6.413 -1.5887 -0.0695 -1.9264
   17PEO   O1AC11660   5.147   1.684   6.406 -0.0325 -0.2338  0.0131
   17PEO   H1AD11661   5.178   1.638   6.613 -1.7735 -0.6784 -0.4997
   17PEO   H1AE11662   5.061   1.765   6.579 -0.6345 -0.3329 -0.9426
   17PEO   C1AF11663   5.157   1.723   6.547 -0.1901  0.0396 -0.1331
   17PEO   C1B011664   5.273   1.828   6.568 -0.2485 -0.0107  0.4452
   17PEO   H1B111665   5.303   1.817   6.674  0.1000  2.5931  0.7033
   17PEO   H1B211666   5.359   1.796   6.508 -0.5721  1.1020 -0.6522
   17PEO   O1B311667   5.225   1.959   6.527  0.0399  0.4543  0.1805
   17PEO   H1B411668   5.388   2.025   6.421 -0.7620  0.5362 -0.5145
   17PEO   H1B511669   5.383   2.081   6.587 -1.9590 -1.2897  1.2797
   17PEO   C1B611670   5.319   2.058   6.500 -0.5127  1.0269 -0.5019
   17PEO   C1B711671   5.250   2.190   6.462 -0.0204 -0.1200 -0.0159
   17PEO   H1B811672   5.159   2.197   6.523 -0.3376  2.4712 -0.6671
   17PEO   H1B911673   5.313   2.278   6.479 -0.1967 -0.3180  1.7846
   17PEO   O1BA11674   5.218   2.173   6.320 -0.2504  0.0496 -0.2733
   17PEO   H1BB11675   5.015   2.096   6.334 -0.0701 -0.9839  0.5762
   17PEO   H1BC11676   5.143   1.984   6.297  0.5664  0.6106  1.6216
   17PEO   C1BD11677   5.110   2.087   6.279 -0.3447  0.0488 -0.0920
   17PEO   C1BE11678   5.084   2.118   6.132  0.0400 -0.5258  0.5910
   17PEO   H1BF11679   5.177   2.115   6.075  0.3503 -2.9702  1.1266
   17PEO   H1C011680   5.014   2.039   6.102 -1.5055  0.3682  1.6532
   17PEO   O1C111681   5.002   2.244   6.123 -0.0119 -0.3248  0.1478
   17PEO   H1C211682   5.142   2.361   6.215  0.1642  0.5123 -0.4424
   17PEO   H1C311683   5.015   2.447   6.135 -2.5276 -1.5317  2.9710
   17PEO   C1C411684   5.082   2.360   6.122 -0.1082  0.5425 -0.2673
   17PEO   C1C511685   5.185   2.385   6.007  0.5037  0.4372 -0.9352
   17PEO   H1C611686   5.202   2.492   6.023  1.6562  0.0564  0.6195
   17PEO   H1C711687   5.279   2.331   6.025 -0.2072 -0.8268 -0.9133
   17PEO   O1C811688   5.123   2.360   5.885 -0.4475  0.6328 -0.1706
   17PEO   H1C911689   5.276   2.488   5.796  0.3975 -0.4816  0.0731
   17PEO   H1CA11690   5.134   2.456   5.698  0.3065  0.2991  0.1453
   17PEO   C1CB11691   5.203   2.409   5.770  0.5085 -0.4064 -0.4927
   17PEO   C1CC11692   5.280   2.287   5.714  0.1442  0.4083 -0.5575
   17PEO   H1CD11693   5.220   2.195   5.728  0.6078  0.3070  0.9117
   17PEO   H1CE11694   5.308   2.299   5.609 -2.3102  3.1342 -1.0490
   17PEO   O1CF11695   5.407   2.275   5.784  0.6973 -0.3263 -0.6579
   17PEO   H1D011696   5.598   2.188   5.800 -0.3771 -0.7973 -1.1138
   17PEO   H1D111697   5.544   2.220   5.632 -1.3093  2.7084  0.6613
   17PEO   C1D211698   5.512   2.188   5.732 -1.1938 -0.0663 -0.1207
   17PEO   C1D311699   5.472   2.044   5.733  0.8450 -0.0526  0.7164
   17PEO   H1D411700   5.370   2.034   5.694  1.2276 -2.1805  0.1564
   17PEO   H1D511701   5.535   1.989   5.662 -1.8530 -0.4518 -1.5702
   17PEO   O1D611702   5.494   1.979   5.861 -0.7471 -0.0729 -0.2690
   17PEO   H1D711703   5.293   1.953   5.894  0.3251  1.7065 -0.6773
   17PEO   H1D811704   5.374   2.073   5.997  0.6964 -0.0274  0.3914
   17PEO   C1D911705   5.384   1.973   5.952  0.2782  0.0942  0.0226
   17PEO   C1DA11706   5.407   1.866   6.062  0.2691 -0.6738 -0.4410
   17PEO   H1DB11707   5.320   1.876   6.128  3.1189 -0.2854  3.5940
   17PEO   H1DC11708   5.414   1.763   6.021  0.6982 -0.7216 -0.2501
   17PEO   O1DD11709   5.524   1.902   6.130  0.7459  0.7576 -0.4126
   17PEO   H1DE11710   5.578   1.712   6.176 -0.2564  0.9771 -1.1550
   17PEO   H1DF11711   5.474   1.796   6.307 -1.4073 -0.5713 -2.1198
   17PEO   C1E011712   5.555   1.803   6.232  1.0830  0.3357  0.4958
   17PEO   C1E111713   5.678   1.854   6.301  0.3172 -0.5037 -0.2515
   17PEO   H1E211714   5.733   1.763   6.332 -1.7139 -1.0742  2.0361
   17PEO   H1E311715   5.735   1.915   6.230 -1.9462  0.7680 -1.0656
   17PEO   O1E411716   5.642   1.928   6.417 -1.1144 -0.1312  0.0030
   17PEO   H1E511717   5.792   2.067   6.403  0.8830 -1.2527 -0.8024
   17PEO   H1E611718   5.836   1.923   6.497  1.4065  0.6528 -0.8883
   17PEO   C1E711719   5.753   1.991   6.473  0.4150 -0.1193  0.2062
   17PEO   C1E811720   5.714   2.052   6.606  0.2135  0.0966 -1.1200
   17PEO   H1E911721   5.798   2.114   6.641  1.4891 -1.0106 -2.1139
   17PEO   H1EA11722   5.624   2.114   6.599 -0.1799 -0.2301  0.5832
   17PEO   O1EB11723   5.686   1.951   6.712 -0.4006  0.5430  0.1686
   17PEO   H1EC11724   5.652   2.108   6.853  4.2115  3.1574 -0.0768
   17PEO   H1ED11725   5.802   2.007   6.880  0.3555 -0.8740 -0.8260
   17PEO   C1EE11726   5.697   2.008   6.845 -0.0477  0.9883  0.2630
   17PEO   C1EF11727   5.624   1.898   6.936 -0.3990 -0.0296  0.2532
   17PEO   H1F011728   5.682   1.805   6.927 -1.7111 -0.6257 -3.8482
   17PEO   H1F111729   5.630   1.938   7.038 -1.9208  1.8543 -0.3390
   17PEO   O1F211730   5.489   1.872   6.900  0.4253 -0.1560  0.1172
   17PEO   H1F311731   5.454   1.788   7.090 -0.9811 -0.3854  0.7135
   17PEO   H1F411732   5.445   1.683   6.956  2.1806 -0.8021  3.5736
   17PEO   C1F511733   5.419   1.785   6.986 -0.0674 -0.2930  0.3934
   17PEO   C1F611734   5.270   1.813   6.971  0.1975 -1.2230  1.0006
   17PEO   H1F711735   5.234   1.853   7.067 -1.9479 -2.5446  0.8073
   17PEO   H1F811736   5.247   1.889   6.894  2.0157  1.5956  3.0633
   17PEO   O1F911737   5.212   1.686   6.941  0.4359  0.0796  0.0227
   17PEO   H1FA11738   5.036   1.714   6.814 -0.1543  1.9913  0.1697
   17PEO   H1FB11739   5.013   1.728   6.993 -1.5591 -1.3466 -0.2571
   17PEO   C1FC11740   5.073   1.683   6.913 -0.4561  0.0762 -0.2842
   17PEO   C1FD11741   5.028   1.533   6.916 -0.0348 -0.3626 -0.1713
   17PEO   H1FE11742   5.043   1.492   6.815 -2.7640  0.4319 -0.9998
   17PEO   H1FF11743   5.088   1.472   6.984  0.7425  0.8570  0.2706
   17PEO   O20011744   4.886   1.529   6.935  0.0065  0.4886 -0.0330
   17PEO   H20111745   4.759   1.382   6.996 -0.6311  1.9915 -0.6913
   17PEO   H20211746   4.898   1.311   6.927  1.3463  0.5671 -0.1131
   17PEO   C20311747   4.829   1.396   6.912  0.4732 -0.1392 -0.1990
   17PEO   C20411748   4.769   1.402   6.770 -0.2287 -0.3844 -0.0088
   17PEO   H20511749   4.689   1.326   6.766  0.4177 -1.0339 -0.8453
   17PEO   H20611750   4.712   1.495   6.757  2.5309  1.4610  0.3570
   17PEO   O20711751   4.870   1.388   6.673  0.4207 -0.5828 -0.2207
   17PEO   H20811752   4.886   1.185   6.689  0.8460 -0.2016 -0.9841
   17PEO   H20911753   5.024   1.257   6.744  2.1417  1.3385 -0.0684
   17PEO   C20A11754   4.949   1.272   6.665  1.4981 -0.3356  0.1814
   17PEO   C20B11755   5.016   1.270   6.530 -0.7859  0.4643  0.1265
   17PEO   H20C11756   5.028   1.163   6.507  1.3082  0.7997 -0.5664
   17PEO   H20D11757   4.945   1.314   6.458 -2.5897  1.5547  2.4371
   17PEO   O20E11758   5.143   1.325   6.559 -0.3698  0.0229 -0.3823
   17PEO   H20F11759   5.188   1.306   6.362 -1.2174 -1.4032  0.6417
   17PEO   H21011760   5.289   1.211   6.467  2.2108  1.0898  0.5423
   17PEO   C21111761   5.242   1.310   6.458 -0.4817 -0.1454  0.1973
   17PEO   C21211762   5.355   1.420   6.473 -0.3965 -0.1966 -0.5573
   17PEO   H21311763   5.429   1.410   6.392 -1.2975  0.2374 -1.4388
   17PEO   H21411764   5.314   1.521   6.463 -0.8844 -0.4659 -1.3338
   17PEO   O21511765   5.409   1.412   6.603 -0.2968 -0.4895 -0.0871
   17PEO   H21611766   5.499   1.519   6.752 -0.7377 -1.9032 -0.5824
   17PEO   H21711767   5.393   1.620   6.656  0.1419  1.1778  0.1881
   17PEO   C21811768   5.469   1.541   6.649 -0.2423  0.8396 -0.2146
   17PEO   C21911769   5.591   1.583   6.569 -0.3082  0.1201 -0.4983
   17PEO   H21A11770   5.560   1.599   6.465 -0.1715 -0.6795 -0.6741
   17PEO   H21B11771   5.626   1.680   6.605 -1.9306  0.2193  0.9889
   17PEO   O21C11772   5.693   1.480   6.573 -0.1499 -0.1522  0.6495
   17PEO   H21D11773   5.886   1.505   6.603 -1.0202  0.1078 -0.4701
   17PEO   H21E11774   5.821   1.626   6.501  1.2384  0.0192 -0.4336
   17PEO   C21F11775   5.821   1.517   6.516 -0.2033 -0.0988 -1.1170
   17PEO   C22011776   5.848   1.442   6.385  0.2910  0.4369 -0.0425
   17PEO   H22111777   5.948   1.477   6.356 -1.0969  2.9039 -2.1574
   17PEO   H22211778   5.848   1.334   6.408  2.5299  0.4528  0.2693
   17PEO   O22311779   5.767   1.485   6.278  0.0952  0.0970 -0.0162
   17PEO   H22411780   5.795   1.300   6.169 -2.3245  0.0338 -3.3792
   17PEO   H22511781   5.866   1.453   6.102 -0.0268  0.7610 -0.1078
   17PEO   C22611782   5.782   1.408   6.159  0.0392  0.8018  0.0211
   17PEO   C22711783   5.641   1.422   6.089  0.3357 -0.8074  0.1708
   17PEO   H22811784   5.623   1.325   6.041 -2.3984  0.4427 -1.5192
   17PEO   H22911785   5.557   1.441   6.158 -0.1954 -2.5245  0.0309
   17PEO   O22A11786   5.642   1.525   5.997 -0.3408 -0.0056  0.4646
   17PEO   H22B11787   5.433   1.547   5.977  0.5739  0.9075 -0.2601
   17PEO   H22C11788   5.506   1.416   5.885  1.9063 -1.6169  2.7677
   17PEO   C22D11789   5.517   1.523   5.911 -0.2649 -0.2764 -0.9501
   17PEO   C22E11790   5.530   1.607   5.782  0.0268 -0.2624  0.3285
   17PEO   H22F11791   5.433   1.621   5.731 -0.2824 -1.0134  0.6993
   17PEO   H23011792   5.578   1.703   5.804 -3.3019  1.8828 -0.8546
   17PEO   O23111793   5.619   1.542   5.685  0.3571 -0.1335  0.4348
   17PEO   H23211794   5.571   1.643   5.511 -1.0908  1.0414  1.8509
   17PEO   H23311795   5.458   1.502   5.557  0.7596 -2.6475  2.8344
   17PEO   C23411796   5.561   1.539   5.547 -0.3728  0.1918 -0.2610
   17PEO   C23511797   5.653   1.447   5.459 -0.2468  0.1441 -0.2195
   17PEO   H23611798   5.651   1.486   5.356 -1.9446  2.1142  0.4795
   17PEO   H23711799   5.752   1.457   5.506 -0.1768  2.4323 -0.7379
   17PEO   O23811800   5.585   1.319   5.471  0.5323 -0.3998  0.3755
   17PEO   H23911801   5.763   1.208   5.511  1.1603  1.3969 -0.1962
   17PEO   H23A11802   5.735   1.219   5.335  1.1846  0.0932  0.4030
   17PEO   C23B11803   5.685   1.213   5.433  0.7022  0.4381  0.1833
   17PEO   C23C11804   5.612   1.074   5.433 -0.3100 -0.0089  0.8400
   17PEO   H23D11805   5.521   1.089   5.372  0.4090  1.1613 -0.0038
   17PEO   H23E11806   5.676   0.992   5.396  0.0626  0.4874  0.3664
   17PEO   O23F11807   5.581   1.047   5.568  0.0025 -0.3402 -0.4900
   17PEO   H24011808   5.503   0.869   5.503  2.2216 -0.1472  0.5944
   17PEO   H24111809   5.398   0.950   5.620 -0.8552 -1.6170 -2.0703
   17PEO   C24211810   5.503   0.932   5.593  0.1994 -0.0488  0.5704
   17PEO   C24311811   5.566   0.855   5.715  0.8842  0.3947  0.1498
   17PEO   H24411812   5.576   0.921   5.802 -0.6290  0.7775  0.0702
   17PEO   H24511813   5.508   0.766   5.745 -0.9027  0.9185 -1.5435
   17PEO   O24611814   5.698   0.808   5.668  0.3994 -0.6734 -0.1305
   17PEO   H24711815   5.702   0.674   5.826  0.6613  0.1652 -0.0724
   17PEO   H24811816   5.785   0.828   5.857  0.3186  3.1319 -3.3137
   17PEO   C24911817   5.769   0.749   5.782  0.2747  0.2689 -0.4891
   17PEO   C24A11818   5.909   0.689   5.756  0.3940 -0.2731 -0.7686
   17PEO   H24B11819   5.938   0.635   5.848 -0.3256 -0.7645 -0.8243
   17PEO   H24C11820   5.914   0.623   5.668 -1.9139 -1.7222  0.0929
   17PEO   O24D11821   6.000   0.802   5.738  0.6054  0.4297  0.5653
   17PEO   H24E11822   6.156   0.710   5.626  0.6303  0.2562  0.3355
   17PEO   H24F11823   6.177   0.714   5.802 -1.7775 -1.8569 -0.0805
   17PEO   C25011824   6.144   0.773   5.716 -0.1778 -0.0805  0.4784
   17PEO   C25111825   6.229   0.898   5.701  0.8742  0.4760 -0.4283
   17PEO   H25211826   6.337   0.884   5.686  0.9651  0.5741  0.0983
   17PEO   H25311827   6.198   0.956   5.612 -0.8714  1.5919  0.8412
   17PEO   O25411828   6.208   0.976   5.818 -0.5829  0.2068 -0.9882
   17PEO   H25511829   6.239   1.180   5.891 -3.3063 -1.6573  0.3352
   17PEO   H25611830   6.269   1.152   5.722 -1.5070  1.7773  1.5817
   17PEO   C25711831   6.280   1.106   5.821 -0.1031 -0.2297  0.5668
   17PEO   C25811832   6.433   1.084   5.859  0.7659 -0.3071  0.1204
   17PEO   H25911833   6.477   0.994   5.813  0.8504 -1.7726  2.8279
   17PEO   H25A11834   6.485   1.176   5.831  0.5459  0.1312  1.1227
   17PEO   O25B11835   6.441   1.080   6.006  0.5944 -0.1365 -0.1836
   17PEO   H25C11836   6.637   1.152   6.001 -0.6644  0.8947  0.6307
   17PEO   H25D11837   6.610   0.974   5.994 -1.0763 -0.4827 -0.6898
   17PEO   C25E11838   6.582   1.068   6.045  0.7125 -0.3356  0.1007
   17PEO   C25F11839   6.597   1.050   6.202 -0.2007  0.1507 -0.8970
   17PEO   H26011840   6.557   0.949   6.220  0.5394  0.1006  0.7136
   17PEO   H26111841   6.705   1.055   6.224 -0.4745 -0.8096  0.9037
   17PEO   O26211842   6.538   1.143   6.285 -0.2801 -0.6197 -0.4331
   17PEO   H26311843   6.447   1.010   6.421 -0.6795  1.3762  0.1617
   17PEO   H26411844   6.468   1.180   6.481  1.9472  1.5793 -0.3407
   17PEO   C26511845   6.513   1.098   6.424  0.3650  0.6282 -0.2991
   17PEO   C26611846   6.646   1.054   6.490  0.5576 -1.1002  0.0675
   17PEO   H26711847   6.720   1.109   6.431 -0.9471 -0.1259 -0.9596
   17PEO   H26811848   6.651   1.103   6.589  0.5316  1.5240 -1.1572
   17PEO   O26911849   6.656   0.909   6.489 -0.5024  0.0779  0.9839
   17PEO   H26A11850   6.717   0.731   6.571 -0.8697  0.1065 -0.0570
   17PEO   H26B11851   6.713   0.866   6.684  0.5145 -0.7152 -0.4857
   17PEO   C26C11852   6.740   0.838   6.581 -0.2392  0.0615 -0.9082
   17PEO   C26D11853   6.890   0.874   6.548 -0.0338  0.3764 -0.5444
   17PEO   H26E11854   6.892   0.948   6.467  1.2830  0.9578 -0.0055
   17PEO   H26F11855   6.940   0.916   6.636 -1.5005  2.1693 -0.4937
   17PEO   O27011856   6.956   0.752   6.492  0.0024  0.7877  0.6049
   17PEO   H27111857   7.008   0.546   6.519 -0.6628  0.5469 -0.7521
   17PEO   H27211858   6.870   0.597   6.619 -0.7197 -0.8670  0.2691
   17PEO   C27311859   6.967   0.629   6.578 -1.2590 -0.0125 -0.3729
   17PEO   C27411860   7.058   0.640   6.700 -0.0095  0.5118 -0.2923
   17PEO   H27511861   7.078   0.537   6.733  0.6739 -0.2236 -2.8248
   17PEO   H27611862   7.152   0.686   6.668 -0.1903 -0.0956 -1.7605
   17PEO   O27711863   6.992   0.728   6.795 -0.2200  0.1884 -0.2044
   17PEO   H27811864   7.034   0.636   6.993 -1.0285 -0.5708 -0.8712
   17PEO   H27911865   6.974   0.801   6.987  0.6693  1.8711 -2.1969
   17PEO   C27A11866   7.036   0.727   6.933 -0.1237 -0.2596 -0.3747
   17PEO   C27B11867   7.181   0.774   6.923  0.1027 -0.0368 -0.5388
   17PEO   H27C11868   7.195   0.860   6.855  2.4840  0.5739  0.6338
   17PEO   H27D11869   7.207   0.817   7.021 -1.9671  1.2497 -0.4730
   17PEO   O27E11870   7.271   0.666   6.888  0.1941 -0.0884  0.1980
   17PEO   H27F11871   7.408   0.683   7.047  1.4764  3.9752  0.1735
   17PEO   H28011872   7.438   0.800   6.913 -1.7013  1.2887  0.8213
   17PEO   C28111873   7.402   0.699   6.938 -0.2696  0.4388 -0.4038
   17PEO   C28211874   7.498   0.601   6.876 -0.3073  0.4607  0.3016
   17PEO   H28311875   7.600   0.615   6.916  0.0716 -2.9161  0.8633
   17PEO   H28411876   7.465   0.498   6.895 -0.0922  0.3293 -0.0223
   17PEO   O28511877   7.494   0.618   6.740  0.6099 -0.8504  0.3739
   17PEO   H28611878   7.646   0.499   6.687 -1.8813  0.2850  1.6257
   17PEO   H28711879   7.681   0.674   6.679  0.0265  0.7743 -1.7346
   17PEO   C28811880   7.605   0.597   6.659  0.0025  0.5070 -0.6534
   17PEO   C28911881   7.568   0.603   6.514 -0.3489  1.2008 -0.4811
   17PEO   H28A11882   7.618   0.523   6.457 -1.9938  0.3189 -0.7282
   17PEO   H28B11883   7.465   0.565   6.505 -1.1772  3.0116  0.9173
   17PEO   O28C11884   7.590   0.735   6.455  0.3248 -0.3043 -0.5023
   17PEO   H28D11885   7.506   0.852   6.606  2.6159 -1.6615  0.6036
   17PEO   H28E11886   7.397   0.791   6.464 -1.1116  2.4277  0.9578
   17PEO   C28F11887   7.490   0.838   6.498  0.5366 -0.3884  0.7022
   17PEO   C29011888   7.516   0.967   6.420 -0.4705 -0.1815  0.2339
   17PEO   H29111889   7.477   1.051   6.479  2.5364  1.5163 -0.0336
   17PEO   H29211890   7.624   0.986   6.422 -0.5851  0.4584  1.2319
   17PEO   O29311891   7.465   0.957   6.286 -0.0491 -0.3586  0.1229
   17PEO   H29411892   7.552   1.117   6.180 -0.5870 -1.9938 -0.1039
   17PEO   H29511893   7.406   1.149   6.272  0.0430  0.0582  0.3882
   17PEO   C29611894   7.454   1.075   6.206 -1.3609 -0.3211 -0.2276
   17PEO   C29711895   7.366   1.068   6.079 -0.1954 -0.0393 -0.1715
   17PEO   H29811896   7.264   1.048   6.114 -0.7658  0.0375 -1.6787
   17PEO   H29911897   7.380   1.165   6.029  2.8773 -0.4707 -0.3448
   17PEO   O29A11898   7.413   0.967   5.989 -0.0075 -0.1486 -0.7491
   17PEO   H29B11899   7.625   0.999   6.018  0.1746 -2.0403  0.6830
   17PEO   H29C11900   7.537   1.060   5.863 -2.1891 -0.0930  1.4510
   17PEO   C29D11901   7.551   0.981   5.939 -0.1558 -0.5911  0.6314
   17PEO   C29E11902   7.579   0.847   5.868 -0.7780 -0.8788 -1.1137
   17PEO   H29F11903   7.506   0.827   5.788 -2.6594  1.2127 -0.0325
   17PEO   H2A011904   7.679   0.858   5.822 -0.1283 -2.2727 -0.0846
   17PEO   O2A111905   7.576   0.741   5.958  0.4617  0.4327 -0.3609
   17PEO   H2A211906   7.591   0.780   6.166 -0.7427  1.9184 -1.1860
   17PEO   H2A311907   7.730   0.831   6.070  0.3373 -0.4667 -0.6070
   17PEO   C2A411908   7.656   0.750   6.083  0.0197 -0.0793  0.0564
   17PEO   C2A511909   7.726   0.612   6.110 -0.6220 -0.4094  0.1664
   17PEO   H2A611910   7.829   0.640   6.133 -0.7243  1.7537 -1.6924
   17PEO   H2A711911   7.674   0.558   6.191  0.7762 -1.2021  0.5754
   17PEO   O2A811912   7.727   0.538   5.987  0.1506  0.0453 -0.6662
   17PEO   H2A911913   7.909   0.447   6.037 -0.5105  2.4358  0.1257
   17PEO   H2AA11914   7.821   0.396   5.885 -1.9812  1.0220 -0.8906
   17PEO   C2AB11915   7.812   0.422   5.991  0.3132 -0.5253 -0.2333
   17PEO   C2AC11916   7.747   0.305   6.069  0.7423 -0.0414 -0.8798
   17PEO   H2AD11917   7.641   0.294   6.042  0.9229 -0.9503 -1.2723
   17PEO   H2AE11918   7.798   0.210   6.047 -0.1648 -0.5793 -0.7356
   17PEO   O2AF11919   7.748   0.320   6.210 -0.0397 -0.0259 -0.6270
   17PEO   H2B011920   7.748   0.120   6.261 -0.2297  1.1006 -0.9018
   17PEO   H2B111921   7.596   0.206   6.272 -0.5472 -1.3621 -1.5096
   17PEO   C2B211922   7.704   0.215   6.292 -0.9741  0.3938  0.2596
   17PEO   C2B311923   7.731   0.241   6.445 -0.2005 -0.4747 -0.1483
   17PEO   H2B411924   7.706   0.343   6.479 -0.1055 -0.7489  0.7726
   17PEO   H2B511925   7.677   0.165   6.503  1.5917 -2.0617 -0.4497
   17PEO   O2B611926   7.866   0.205   6.474 -0.0214 -0.0478 -0.3304
   17PEO   H2B711927   7.931   0.396   6.440  1.6857  0.0910 -1.8096
   17PEO   H2B811928   7.986   0.262   6.322 -3.3665 -1.7799 -0.2631
   17PEO   C2B911929   7.967   0.293   6.426 -0.1127 -0.8910  0.1758
   17PEO   C2BA11930   8.096   0.287   6.510 -0.1518  0.4870  0.3767
   17PEO   H2BB11931   8.131   0.185   6.531 -0.0945  0.4265 -0.0048
   17PEO   H2BC11932   8.170   0.333   6.443 -1.0736 -0.2850 -1.2363
   17PEO   O2BD11933   8.082   0.359   6.634  0.7653  0.1134  0.0611
   17PEO   H2BE11934   8.007   0.319   6.680 -1.1673  0.8778 -2.2148
   18PEO   H00111935   2.175   2.697   4.353 -0.2090  0.3659  0.5287
   18PEO   H00211936   2.201   2.654   4.182 -1.6015  0.0884 -0.1674
   18PEO   H00311937   2.226   2.823   4.233  2.0689 -0.7913  1.0749
   18PEO   C00411938   2.165   2.734   4.249  0.1389  0.3649  0.4915
   18PEO   C00511939   2.015   2.768   4.226  1.1891  0.0751 -0.0290
   18PEO   H00611940   1.976   2.826   4.311 -0.9184  2.2904 -2.3595
   18PEO   H00711941   2.010   2.828   4.134 -1.8243 -1.0947 -0.7541
   18PEO   O00811942   1.949   2.646   4.205  0.1245 -0.5937  0.0704
   18PEO   H00911943   1.802   2.735   4.084  1.8752  1.7476  0.3280
   18PEO   H00A11944   1.772   2.743   4.254  1.0124 -0.6669  1.3571
   18PEO   C00B11945   1.811   2.676   4.176 -0.3016  0.3856 -0.2704
   18PEO   C00C11946   1.720   2.542   4.179 -0.4684 -0.4704  0.0191
   18PEO   H00D11947   1.723   2.505   4.282 -0.4411 -1.8860 -0.4770
   18PEO   H00E11948   1.616   2.573   4.161  0.3436  1.6445 -1.4982
   18PEO   O00F11949   1.740   2.443   4.085 -0.3696  0.0851  0.6428
   18PEO   H01011950   1.665   2.298   4.215  4.5102  3.6977  1.4935
   18PEO   H01111951   1.677   2.252   4.058 -1.7381 -1.6295  2.3556
   18PEO   C01211952   1.648   2.341   4.115  0.1482  0.3163  0.4624
   18PEO   C01311953   1.499   2.368   4.079  0.0909 -0.9132  0.1247
   18PEO   H01411954   1.431   2.387   4.163  2.4456  2.4301  1.5116
   18PEO   H01511955   1.493   2.467   4.032 -0.8192 -1.1864 -0.3623
   18PEO   O01611956   1.443   2.278   3.984 -0.6631  0.4987 -0.3049
   18PEO   H01711957   1.268   2.231   4.104 -2.5742 -1.4965  0.3668
   18PEO   H01811958   1.423   2.126   4.117  2.0267  1.4634 -1.1987
   18PEO   C01911959   1.354   2.183   4.054 -1.0754  0.4050  0.9931
   18PEO   C01A11960   1.299   2.090   3.947  0.2658  0.0793 -0.9623
   18PEO   H01B11961   1.223   2.024   3.991 -0.3234  1.9940  1.0371
   18PEO   H01C11962   1.253   2.163   3.879 -1.2082  1.2819  1.2122
   18PEO   O01D11963   1.410   2.024   3.894 -0.0439  0.3267  0.9766
   18PEO   H01E11964   1.321   1.848   3.815  0.0607 -0.1246  0.9267
   18PEO   H01F11965   1.483   1.862   3.774 -0.3802 -0.1647  1.1105
   18PEO   C02011966   1.394   1.925   3.788 -0.2862  0.0900  0.5869
   18PEO   C02111967   1.350   1.997   3.661  0.1402 -0.7982  0.3397
   18PEO   H02211968   1.408   2.089   3.647 -1.8981  0.6699  0.9927
   18PEO   H02311969   1.357   1.934   3.572 -1.5999  1.1381 -1.2820
   18PEO   O02411970   1.216   2.031   3.684  0.4316  0.1330 -0.3860
   18PEO   H02511971   1.234   2.232   3.620  1.4754 -0.9475 -1.5785
   18PEO   H02611972   1.073   2.175   3.679  1.6691  0.2304  2.8522
   18PEO   C02711973   1.159   2.152   3.615 -0.2806  0.4958 -0.0126
   18PEO   C02811974   1.117   2.117   3.464  0.3669 -0.3642 -0.7757
   18PEO   H02911975   1.131   2.203   3.397 -3.2511 -0.4409 -1.8351
   18PEO   H02A11976   1.167   2.025   3.430 -1.4841 -1.2105 -1.3380
   18PEO   O02B11977   0.971   2.097   3.467  0.2384  0.1615  0.6069
   18PEO   H02C11978   0.968   1.910   3.380 -0.3279 -0.2183 -0.3876
   18PEO   H02D11979   0.927   2.039   3.269 -3.3394 -1.4482 -0.6414
   18PEO   C02E11980   0.915   2.006   3.373 -0.2678 -0.1367  0.2340
   18PEO   C02F11981   0.769   1.984   3.405  0.2295  0.1094  0.0932
   18PEO   H03011982   0.715   2.077   3.426  0.1852 -0.4580  2.8917
   18PEO   H03111983   0.726   1.946   3.311 -0.5794  0.4921  0.3080
   18PEO   O03211984   0.744   1.889   3.509 -0.4102 -0.3861  0.4683
   18PEO   H03311985   0.561   1.979   3.532  0.6329 -0.0949 -2.0452
   18PEO   H03411986   0.596   1.869   3.662  2.2232 -1.1928  0.3680
   18PEO   C03511987   0.609   1.882   3.554 -0.5164 -0.2350  0.0884
   18PEO   C03611988   0.531   1.767   3.481  0.6302 -0.1710 -0.0100
   18PEO   H03711989   0.570   1.664   3.491 -2.0867 -1.1157  1.9783
   18PEO   H03811990   0.429   1.753   3.520  0.5280 -0.2942 -0.3182
   18PEO   O03911991   0.532   1.794   3.336  0.1984  0.1421 -0.4493
   18PEO   H03A11992   0.356   1.763   3.260  0.3485  0.4978  3.9500
   18PEO   H03B11993   0.436   1.613   3.311 -2.0030 -0.9600 -1.4493
   18PEO   C03C11994   0.453   1.711   3.265  0.2621 -0.2011  0.7924
   18PEO   C03D11995   0.530   1.695   3.128  0.0807  0.0473 -0.3132
   18PEO   H03E11996   0.632   1.676   3.164 -0.9449 -0.6620  2.5024
   18PEO   H03F11997   0.490   1.618   3.061 -1.5660 -0.7703  1.5002
   18PEO   O04011998   0.525   1.818   3.065 -0.7815  0.0464  0.0367
   18PEO   H04111999   0.514   1.917   2.876 -2.6182 -2.1436 -1.0027
   18PEO   H04212000   0.456   1.757   2.873  0.2150  1.2220 -2.5816
   18PEO   C04312001   0.535   1.818   2.919  0.2355 -0.9745  0.5656
   18PEO   C04412002   0.673   1.774   2.871 -0.5983  0.5646  0.0993
   18PEO   H04512003   0.693   1.673   2.908  1.9761  0.2461 -1.8487
   18PEO   H04612004   0.666   1.763   2.761 -0.3806  1.1117  0.0248
   18PEO   O04712005   0.772   1.868   2.911  0.1470 -0.2585  0.2131
   18PEO   H04812006   0.831   2.055   2.887  0.6781  0.8568 -1.0431
   18PEO   H04912007   0.700   2.007   2.770  0.8718  1.5987 -0.1189
   18PEO   C04A12008   0.791   1.976   2.822  0.5207  0.2757 -0.2522
   18PEO   C04B12009   0.888   1.928   2.718 -0.9537  0.0932  0.5429
   18PEO   H04C12010   0.960   2.004   2.686  1.6009 -2.5741 -0.5705
   18PEO   H04D12011   0.946   1.844   2.761 -0.3601  0.5181  0.5763
   18PEO   O04E12012   0.810   1.870   2.604  0.0474 -0.7487 -0.4029
   18PEO   H04F12013   0.910   1.705   2.549  0.6374  0.1680 -0.5329
   18PEO   H05012014   0.980   1.860   2.483  1.4259 -0.5682 -0.3930
   18PEO   C05112015   0.889   1.802   2.503  0.8502  0.4144 -0.1131
   18PEO   C05212016   0.814   1.801   2.378 -0.1184 -0.3837  0.2656
   18PEO   H05312017   0.759   1.897   2.374  0.9859  0.2999  1.0872
   18PEO   H05412018   0.883   1.794   2.293  0.2343  1.3045  0.3698
   18PEO   O05512019   0.738   1.690   2.376 -0.2339  0.3621 -0.5277
   18PEO   H05612020   0.573   1.749   2.272  3.4436  0.3128 -0.1738
   18PEO   H05712021   0.566   1.781   2.461  0.3110 -1.6171  2.4233
   18PEO   C05812022   0.594   1.718   2.376  0.2310  0.5889  0.6909
   18PEO   C05912023   0.518   1.585   2.402  0.2086  0.0747  0.0717
   18PEO   H05A12024   0.411   1.590   2.378  0.2049 -3.2579 -1.2940
   18PEO   H05B12025   0.567   1.517   2.330 -1.4145 -2.4780  1.2253
   18PEO   O05C12026   0.544   1.551   2.539  0.0512  0.1795  0.2429
   18PEO   H05D12027   0.554   1.381   2.659  0.8481  1.0453  0.3273
   18PEO   H05E12028   0.547   1.350   2.484 -1.2407  1.3556 -1.9035
   18PEO   C05F12029   0.506   1.412   2.565  0.6625  0.1366  0.1099
   18PEO   C06012030   0.353   1.390   2.587  0.0818  0.0395  0.4575
   18PEO   H06112031   0.310   1.413   2.488 -0.3408 -0.0276  0.6229
   18PEO   H06212032   0.332   1.292   2.632 -1.3553 -0.0147 -0.2887
   18PEO   O06312033   0.311   1.497   2.682 -0.5769  0.3915 -0.7348
   18PEO   H06412034   0.122   1.409   2.695 -2.4015  1.0078 -0.9494
   18PEO   H06512035   0.138   1.540   2.581 -0.1865 -1.0685 -0.7555
   18PEO   C06612036   0.172   1.506   2.680 -0.2524  0.0671 -0.3207
   18PEO   C06712037   0.143   1.615   2.781  0.2345 -0.8309 -0.3517
   18PEO   H06812038   0.195   1.706   2.750 -0.6557 -0.0687  0.3251
   18PEO   H06912039   0.036   1.638   2.766 -0.1270 -1.9023  0.4185
   18PEO   O06A12040   0.178   1.574   2.919  0.1243  0.0446 -0.1959
   18PEO   H06B12041   0.156   1.622   3.119  1.2001  2.1568  1.6037
   18PEO   H06C12042   0.023   1.674   3.010  0.2304 -0.0860  2.0435
   18PEO   C06D12043   0.132   1.666   3.021  0.3760 -0.2446  0.6638
   18PEO   C06E12044   0.194   1.804   3.013 -0.1288  0.6429 -0.6186
   18PEO   H06F12045   0.171   1.857   3.107  0.8722  0.7855 -0.4458
   18PEO   H07012046   0.302   1.786   3.017 -0.2866 -1.5327 -3.2705
   18PEO   O07112047   0.146   1.879   2.905  0.0875  0.0209 -0.1602
   18PEO   H07212048   0.287   2.031   2.940 -0.6552  0.7954 -1.8555
   18PEO   H07312049   0.147   2.039   3.041 -1.8188 -1.7449 -0.0036
   18PEO   C07412050   0.178   2.017   2.938 -0.6283 -0.0658 -0.0414
   18PEO   C07512051   0.135   2.121   2.826  0.3309  0.0944 -0.5835
   18PEO   H07612052   0.050   2.081   2.769 -0.8504  0.5351  0.8012
   18PEO   H07712053   0.100   2.210   2.880 -2.7551 -0.4788 -1.4557
   18PEO   O07812054   0.244   2.157   2.736  0.3034 -0.2757 -0.2673
   18PEO   H07912055   0.215   2.057   2.564 -2.2895  1.5860  2.1269
   18PEO   H07A12056   0.250   1.953   2.703 -1.0822 -0.1215 -0.2412
   18PEO   C07B12057   0.280   2.046   2.652  0.0978 -0.1876  0.2954
   18PEO   C07C12058   0.431   2.046   2.625 -0.0235 -0.7469 -0.0353
   18PEO   H07D12059   0.495   2.088   2.705 -0.9617 -0.1160  0.3982
   18PEO   H07E12060   0.466   1.942   2.611  1.9579 -0.0612 -0.4921
   18PEO   O07F12061   0.448   2.104   2.491 -0.1201  0.5762  0.2393
   18PEO   H08012062   0.595   2.118   2.345  0.1734 -0.4482  0.6680
   18PEO   H08112063   0.629   2.010   2.490  1.1403 -0.5893 -1.9604
   18PEO   C08212064   0.587   2.105   2.454  0.2105  0.0966  0.7367
   18PEO   C08312065   0.667   2.226   2.514  0.1906 -0.5895  0.0509
   18PEO   H08412066   0.677   2.216   2.623 -3.6955 -1.5864  0.4814
   18PEO   H08512067   0.770   2.225   2.475  0.1756 -0.4306  0.0068
   18PEO   O08612068   0.603   2.353   2.476 -0.0421  0.2361 -0.5703
   18PEO   H08712069   0.442   2.333   2.603 -1.5284  0.4946 -1.2516
   18PEO   H08812070   0.451   2.486   2.511  2.5151 -1.6506 -2.9632
   18PEO   C08912071   0.509   2.413   2.569  0.7372 -0.6035  0.3632
   18PEO   C08A12072   0.590   2.482   2.682  0.3472  0.5846  0.5033
   18PEO   H08B12073   0.670   2.537   2.632  0.0592 -0.6199 -1.3985
   18PEO   H08C12074   0.515   2.539   2.739 -0.6315 -1.5607  1.4896
   18PEO   O08D12075   0.643   2.384   2.770  0.5388  0.5315 -0.1433
   18PEO   H08E12076   0.611   2.497   2.940 -0.2579 -0.7872  1.9743
   18PEO   H08F12077   0.780   2.488   2.879  1.1576 -1.8732  0.9238
   18PEO   C09012078   0.687   2.431   2.894 -0.4865  0.3708 -0.1939
   18PEO   C09112079   0.731   2.317   2.994 -0.0010 -0.2013 -0.6210
   18PEO   H09212080   0.806   2.251   2.949  0.8205 -0.5674  1.2030
   18PEO   H09312081   0.783   2.363   3.080  1.8944 -0.7290 -1.4472
   18PEO   O09412082   0.607   2.258   3.039 -0.3285 -0.0911  0.5563
   18PEO   H09512083   0.697   2.152   3.206  1.9250  2.5412 -1.2784
   18PEO   H09612084   0.641   2.047   3.069 -1.7120 -1.8854  1.5220
   18PEO   C09712085   0.625   2.140   3.124  0.4468 -0.7155  0.3121
   18PEO   C09812086   0.487   2.111   3.198 -0.4809  0.3573 -0.1473
   18PEO   H09912087   0.411   2.111   3.118 -0.6909  0.6167  0.0499
   18PEO   H09A12088   0.485   2.012   3.247 -0.3351  0.6107  0.3793
   18PEO   O09B12089   0.479   2.226   3.288  0.6437 -0.5770 -0.2708
   18PEO   H09C12090   0.324   2.117   3.372 -0.5742  0.3146 -0.4577
   18PEO   H09D12091   0.273   2.249   3.288 -0.7965 -1.5561  1.1284
   18PEO   C09E12092   0.356   2.221   3.354  0.6320  0.0655  0.1350
   18PEO   C09F12093   0.351   2.309   3.499 -0.6168 -0.3224  0.8302
   18PEO   H0A012094   0.287   2.260   3.575  1.7102 -0.2648  2.9779
   18PEO   H0A112095   0.451   2.306   3.544 -1.6379 -2.3944  3.2625
   18PEO   O0A212096   0.317   2.443   3.488 -0.7741 -0.3356  0.1626
   18PEO   H0A312097   0.105   2.398   3.450 -1.3067  0.5582 -0.0540
   18PEO   H0A412098   0.198   2.515   3.345  2.5753 -2.6259 -0.6507
   18PEO   C0A512099   0.186   2.473   3.446 -0.2424 -0.5587  0.0103
   18PEO   C0A612100   0.135   2.585   3.536  0.1804 -0.3774 -0.1141
   18PEO   H0A712101   0.195   2.673   3.510 -0.6522 -0.3056 -1.8782
   18PEO   H0A812102   0.037   2.613   3.497  1.4558  1.5136 -2.1746
   18PEO   O0A912103   0.138   2.554   3.673  0.7397  0.1877  0.5244
   18PEO   H0AA12104   0.023   2.728   3.699 -1.3852 -1.6678  0.1638
   18PEO   H0AB12105   0.180   2.741   3.758 -0.6254 -0.5034 -0.5716
   18PEO   C0AC12106   0.099   2.667   3.750 -0.3974 -0.7952 -0.2277
   18PEO   C0AD12107   0.062   2.613   3.890 -0.1734  0.2145  0.1441
   18PEO   H0AE12108   0.140   2.539   3.913 -0.0509  0.2808 -0.0522
   18PEO   H0AF12109   0.073   2.695   3.964  0.3000  0.7996 -0.5556
   18PEO   O0B012110  -0.080   2.575   3.882 -0.4022  0.6256  0.5879
   18PEO   H0B112111  -0.012   2.378   3.895 -2.2326 -2.5425  0.5590
   18PEO   H0B212112  -0.090   2.412   3.746  0.7391 -0.3701  0.6592
   18PEO   C0B312113  -0.095   2.437   3.853 -0.6135 -0.1103  0.5609
   18PEO   C0B412114  -0.229   2.385   3.907  0.2174 -0.6971  0.2996
   18PEO   H0B512115  -0.311   2.453   3.877 -1.5616 -2.5787  0.7099
   18PEO   H0B612116  -0.263   2.292   3.860 -0.5062 -0.1649 -0.2516
   18PEO   O0B712117  -0.221   2.386   4.048  0.0418 -0.1364 -0.0468
   18PEO   H0B812118  -0.359   2.556   4.074 -0.6553  1.4165  1.9321
   18PEO   H0B912119  -0.269   2.496   4.225  0.7257 -0.2756 -0.9951
   18PEO   C0BA12120  -0.315   2.471   4.128 -1.2935 -0.2787 -0.0948
   18PEO   C0BB12121  -0.433   2.385   4.172  0.4205 -0.1411  0.1915
   18PEO   H0BC12122  -0.399   2.303   4.238 -0.7349 -1.3848 -0.6997
   18PEO   H0BD12123  -0.507   2.448   4.224 -2.5124 -3.1328  0.0001
   18PEO   O0BE12124  -0.501   2.341   4.054  0.4965  0.2518 -0.2240
   18PEO   H0BF12125  -0.695   2.272   4.105  0.0972  2.7370 -2.8141
   18PEO   H0C012126  -0.561   2.155   4.129  0.2022  0.9134  1.7897
   18PEO   C0C112127  -0.599   2.235   4.064 -0.0107 -0.7802 -0.2935
   18PEO   C0C212128  -0.635   2.192   3.920 -0.1206 -0.0055 -0.7435
   18PEO   H0C312129  -0.713   2.114   3.918  0.2744 -0.3884 -1.4715
   18PEO   H0C412130  -0.680   2.283   3.876 -0.0981 -0.0317 -0.8209
   18PEO   O0C512131  -0.524   2.152   3.836 -0.0477  0.2470 -0.4056
   18PEO   H0C612132  -0.637   2.171   3.658  1.2955  2.7793 -1.4907
   18PEO   H0C712133  -0.569   2.018   3.692  1.3146 -0.1872  0.9180
   18PEO   C0C812134  -0.545   2.125   3.697 -0.4688  0.3006  0.0564
   18PEO   C0C912135  -0.418   2.142   3.612  0.0181 -0.2106 -0.3229
   18PEO   H0CA12136  -0.326   2.125   3.670 -0.3525 -1.6602 -0.1153
   18PEO   H0CB12137  -0.426   2.073   3.527  0.4710  0.6411 -1.0731
   18PEO   O0CC12138  -0.407   2.281   3.563 -1.1315 -0.1211  0.2944
   18PEO   H0CD12139  -0.294   2.258   3.381 -0.1439 -1.1892  0.6187
   18PEO   H0CE12140  -0.196   2.265   3.527 -0.9857 -1.3161  1.2994
   18PEO   C0CF12141  -0.289   2.303   3.482 -0.0037 -0.1856  0.1741
   18PEO   C0D012142  -0.274   2.454   3.448 -0.4605  0.3651 -0.1120
   18PEO   H0D112143  -0.290   2.518   3.536  1.5959 -1.1952  1.4764
   18PEO   H0D212144  -0.167   2.471   3.427  0.0663 -1.1848  1.1448
   18PEO   O0D312145  -0.375   2.480   3.353  0.0707  0.0035  0.1064
   18PEO   H0D412146  -0.345   2.679   3.382  0.9441 -0.9941 -0.3234
   18PEO   H0D512147  -0.497   2.645   3.300  0.8998  1.3919 -3.6841
   18PEO   C0D612148  -0.391   2.615   3.305  0.2564 -0.8985 -0.0032
   18PEO   C0D712149  -0.316   2.637   3.170 -0.3475  0.3660  0.3358
   18PEO   H0D812150  -0.345   2.567   3.090  0.2963 -0.6174  0.9337
   18PEO   H0D912151  -0.338   2.740   3.140 -1.7593  0.6016  2.0174
   18PEO   O0DA12152  -0.181   2.633   3.197  0.8157 -0.3514  0.6150
   18PEO   H0DB12153  -0.148   2.800   3.073  0.2737  0.8031  2.4599
   18PEO   H0DC12154  -0.110   2.630   3.001  0.3284 -1.0912  1.2973
   18PEO   C0DD12155  -0.111   2.697   3.088  0.0191  0.3351  0.2347
   18PEO   C0DE12156   0.036   2.702   3.132  0.1752  0.4992  0.2097
   18PEO   H0DF12157   0.082   2.603   3.123 -1.6991 -0.2678 -1.9250
   18PEO   H0E012158   0.098   2.752   3.055 -0.4492  0.1705 -0.5249
   18PEO   O0E112159   0.051   2.759   3.266  0.2327  0.1218  0.7681
   18PEO   H0E212160  -0.107   2.879   3.249  0.8424  1.2828 -0.7815
   18PEO   H0E312161   0.046   2.960   3.198  0.5341 -0.2394 -1.0853
   18PEO   C0E412162  -0.001   2.895   3.273  0.7410  0.8095 -0.0111
   18PEO   C0E512163   0.019   2.958   3.410  0.4624  0.1396  0.1144
   18PEO   H0E612164  -0.064   3.025   3.438 -0.2964 -1.0826  0.8518
   18PEO   H0E712165   0.025   2.883   3.490  2.1547 -1.8175 -1.7200
   18PEO   O0E812166   0.148   3.031   3.404  0.5523  0.3160 -0.9305
   18PEO   H0E912167   0.275   2.850   3.388 -1.9133 -1.5138  1.4368
   18PEO   H0EA12168   0.255   2.914   3.545  1.9693 -0.0620  0.3895
   18PEO   C0EB12169   0.265   2.946   3.440 -0.0972 -0.4901  0.0309
   18PEO   C0EC12170   0.390   3.030   3.426 -1.0948 -0.4131 -0.5251
   18PEO   H0ED12171   0.380   3.121   3.488  1.7642 -1.0497  1.0916
   18PEO   H0EE12172   0.468   2.962   3.463 -0.9084  0.0989  0.0446
   18PEO   O0EF12173   0.412   3.060   3.284 -0.3081  1.0081  0.6660
   18PEO   H0F012174   0.619   3.052   3.285  0.5628 -0.5991 -0.9803
   18PEO   H0F112175   0.543   3.213   3.326  0.3576  1.5586 -0.9380
   18PEO   C0F212176   0.538   3.123   3.262  0.0904 -0.2503  1.4977
   18PEO   C0F312177   0.538   3.166   3.112  0.1169  0.3066  0.4385
   18PEO   H0F412178   0.457   3.240   3.099  0.5563  0.7150  0.0029
   18PEO   H0F512179   0.633   3.212   3.081  1.1773 -2.3144 -0.4733
   18PEO   O0F612180   0.518   3.056   3.017 -0.2756 -0.5866 -0.2627
   18PEO   H0F712181   0.334   2.963   3.081  1.0328  0.3399  0.2380
   18PEO   H0F812182   0.409   2.914   2.929 -0.7822  1.2855 -1.2586
   18PEO   C0F912183   0.384   3.001   2.990  0.3014  0.7493  0.0008
   18PEO   C0FA12184   0.295   3.102   2.913  1.0397  0.5316  0.5646
   18PEO   H0FB12185   0.195   3.067   2.883  1.4342  0.9565 -1.3166
   18PEO   H0FC12186   0.291   3.189   2.980  0.0989  0.5494  0.4984
   18PEO   O0FD12187   0.376   3.135   2.796  0.2669  0.4996 -0.3646
   18PEO   H0FE12188   0.334   3.325   2.765 -0.3152 -1.2281  0.9891
   18PEO   H0FF12189   0.220   3.211   2.685  0.4838 -2.1413  1.6487
   18PEO   C10012190   0.326   3.230   2.710  0.6814 -0.7430 -0.0319
   18PEO   C10112191   0.418   3.241   2.581 -0.7704  0.2904 -0.2740
   18PEO   H10212192   0.450   3.141   2.549 -0.4298 -0.1075  1.2382
   18PEO   H10312193   0.354   3.292   2.508 -2.1401 -2.8411 -1.4331
   18PEO   O10412194   0.535   3.312   2.617 -0.8249  0.4076 -0.6188
   18PEO   H10512195   0.550   3.428   2.453  0.4169  0.7048  0.0832
   18PEO   H10612196   0.636   3.275   2.435  0.6912  0.8619 -1.4422
   18PEO   C10712197   0.614   3.356   2.507 -1.2459 -0.8698  0.0449
   18PEO   C10812198   0.758   3.409   2.563 -0.2014 -0.1620 -0.2290
   18PEO   H10912199   0.776   3.501   2.506 -0.9239  0.6145  0.7357
   18PEO   H10A12200   0.752   3.435   2.670  2.1053  0.5338 -0.2113
   18PEO   O10B12201   0.856   3.307   2.535 -0.0430  1.0042  0.6675
   18PEO   H10C12202   1.050   3.250   2.525  0.2252  0.6190  1.5208
   18PEO   H10D12203   1.019   3.389   2.634 -2.3920 -0.4491  0.8847
   18PEO   C10E12204   0.996   3.345   2.536 -0.7480  0.2422  0.1439
   18PEO   C10F12205   1.043   3.453   2.426  0.2478  0.7364 -0.3514
   18PEO   H11012206   1.151   3.437   2.425  0.1191 -0.7683  1.7919
   18PEO   H11112207   0.990   3.430   2.332 -0.2296 -0.9210  0.2769
   18PEO   O11212208   1.016   3.584   2.478  0.3126 -0.0702 -0.0235
   18PEO   H11312209   1.060   3.686   2.304 -1.0482 -0.9018  0.0021
   18PEO   H11412210   1.128   3.758   2.449 -2.7069  1.8460  0.2637
   18PEO   C11512211   1.040   3.705   2.411 -0.9275 -1.2169  0.0823
   18PEO   C11612212   0.925   3.801   2.430  0.6351  0.2504 -0.5572
   18PEO   H11712213   0.953   3.898   2.387 -0.2161  1.0056  0.5149
   18PEO   H11812214   0.835   3.768   2.376 -0.3929  0.9184  0.7046
   18PEO   O11912215   0.896   3.812   2.566  0.7934 -0.5421 -0.5075
   18PEO   H11A12216   0.699   3.812   2.545  0.3211  0.1671 -0.7944
   18PEO   H11B12217   0.752   3.976   2.527  1.4423  1.2037  1.8248
   18PEO   C11C12218   0.770   3.885   2.586  0.4541 -0.3290 -0.1260
   18PEO   C11D12219   0.743   3.893   2.739  0.6432 -0.1227 -0.4955
   18PEO   H11E12220   0.828   3.943   2.787  1.3609  1.2072 -2.9596
   18PEO   H11F12221   0.650   3.951   2.753  0.7522 -0.4366  1.8945
   18PEO   O12012222   0.734   3.760   2.790 -0.0293  0.1161 -0.1686
   18PEO   H12112223   0.608   3.821   2.948 -0.9060 -0.9320  0.9155
   18PEO   H12212224   0.717   3.693   2.984  1.3354  0.0234  0.1312
   18PEO   C12312225   0.655   3.733   2.902  0.5586 -0.0639  0.6607
   18PEO   C12412226   0.559   3.613   2.866 -0.0096  0.1420  0.3122
   18PEO   H12512227   0.619   3.538   2.813  0.6376  1.3538 -0.7201
   18PEO   H12612228   0.524   3.574   2.963 -0.5512 -3.6193 -1.2241
   18PEO   O12712229   0.440   3.658   2.802  0.0752 -0.0475 -0.8851
   18PEO   H12812230   0.521   3.620   2.609  3.0997 -0.2312  2.9896
   18PEO   H12912231   0.491   3.792   2.649 -1.5804  0.8026  0.5492
   18PEO   C12A12232   0.454   3.689   2.662  0.2337 -0.0262 -0.5095
   18PEO   C12B12233   0.316   3.678   2.598 -0.0882 -0.3246  0.6906
   18PEO   H12C12234   0.312   3.690   2.488 -2.2917 -0.3371  0.7347
   18PEO   H12D12235   0.273   3.578   2.615  0.3637 -0.5831  0.3596
   18PEO   O12E12236   0.225   3.775   2.655  0.2381 -0.3743 -0.3348
   18PEO   H12F12237   0.072   3.664   2.606 -0.6142  0.6258  1.9924
   18PEO   H13012238   0.091   3.811   2.490 -0.7520 -1.7116 -1.0617
   18PEO   C13112239   0.090   3.772   2.593 -0.3103  0.3473 -0.2306
   18PEO   C13212240  -0.002   3.857   2.674 -0.0545  0.3897 -1.0003
   18PEO   H13312241  -0.102   3.829   2.637 -0.1009 -0.1469 -0.4875
   18PEO   H13412242   0.013   3.838   2.781 -1.5871 -1.0560 -1.0032
   18PEO   O13512243   0.032   3.993   2.645  0.3780  0.5383 -0.0540
   18PEO   H13612244   0.015   4.090   2.820  2.6571  1.0839 -1.3654
   18PEO   H13712245  -0.144   4.057   2.743 -0.2164  1.9412  2.9676
   18PEO   C13812246  -0.040   4.087   2.725  0.1047 -0.5015  0.0553
   18PEO   C13912247  -0.012   4.220   2.650  0.3791  0.4354  0.2515
   18PEO   H13A12248  -0.015   4.298   2.727 -0.1293  1.1198 -0.4451
   18PEO   H13B12249   0.088   4.206   2.607 -0.2005  0.9183 -1.3111
   18PEO   O13C12250  -0.105   4.244   2.538  0.6517 -0.4846 -0.4260
   18PEO   H13D12251   0.004   4.374   2.435 -0.2083  0.8873 -1.1443
   18PEO   H13E12252  -0.112   4.456   2.550 -1.3987 -1.0499 -0.2868
   18PEO   C13F12253  -0.098   4.375   2.477  0.1358 -0.9591 -0.1386
   18PEO   C14012254  -0.222   4.398   2.376 -0.5827 -0.4536 -0.1758
   18PEO   H14112255  -0.320   4.388   2.425 -0.3724 -2.9700 -0.1121
   18PEO   H14212256  -0.201   4.498   2.336  1.3977 -1.3569 -1.6087
   18PEO   O14312257  -0.218   4.306   2.266 -0.4541  0.7118  0.8289
   18PEO   H14412258  -0.379   4.181   2.302 -0.0955  0.0341 -2.1297
   18PEO   H14512259  -0.226   4.130   2.371 -0.3951 -0.6900  0.3699
   18PEO   C14612260  -0.272   4.170   2.279  0.4196 -0.1734  0.1727
   18PEO   C14712261  -0.243   4.090   2.152  0.1296 -0.2105 -0.5092
   18PEO   H14812262  -0.278   3.987   2.169  1.2268 -0.3327  1.2573
   18PEO   H14912263  -0.284   4.134   2.061  2.2559  1.5266 -0.7266
   18PEO   O14A12264  -0.094   4.067   2.138  0.3571  0.1365 -0.1839
   18PEO   H14B12265  -0.057   3.883   2.224  1.1132 -0.2790 -1.8371
   18PEO   H14C12266  -0.060   4.018   2.337 -1.2733  1.3986 -0.7196
   18PEO   C14D12267  -0.031   3.989   2.235 -0.1587 -0.1130 -0.0212
   18PEO   C14E12268   0.127   3.988   2.225  0.1966 -0.1774  0.2697
   18PEO   H14F12269   0.154   4.090   2.195  1.0836 -0.4130  0.2264
   18PEO   H15012270   0.173   3.962   2.322 -0.3008  2.2694  1.2214
   18PEO   O15112271   0.175   3.901   2.123  0.0724  0.1007 -0.2067
   18PEO   H15212272   0.169   3.991   1.930  0.1940 -1.5194 -1.0198
   18PEO   H15312273   0.011   3.917   2.000 -0.0773 -2.2805  1.2932
   18PEO   C15412274   0.120   3.911   1.988  0.0477 -0.1223  0.8984
   18PEO   C15512275   0.154   3.778   1.901  0.1261 -0.2495  0.2140
   18PEO   H15612276   0.106   3.796   1.803 -1.0077 -1.6344  0.4786
   18PEO   H15712277   0.257   3.739   1.903 -0.2477 -1.2348  1.5355
   18PEO   O15812278   0.074   3.676   1.961  0.3289 -0.3406  0.3677
   18PEO   H15912279  -0.003   3.484   1.965  1.1604  0.8282  2.7186
   18PEO   H15A12280   0.129   3.517   1.844  1.6431  2.7287  0.7982
   18PEO   C15B12281   0.037   3.554   1.891  0.1892 -0.5487  0.7835
   18PEO   C15C12282  -0.057   3.586   1.770 -0.0633  0.5341 -0.6688
   18PEO   H15D12283  -0.126   3.507   1.737  0.9401  0.4733 -2.7524
   18PEO   H15E12284  -0.122   3.670   1.800 -0.3906  0.5981 -1.5318
   18PEO   O15F12285   0.028   3.620   1.668  0.3450  0.1305 -0.0056
   18PEO   H16012286   0.045   3.758   1.519 -0.5912  0.3486  0.5481
   18PEO   H16112287  -0.109   3.742   1.597  0.7079 -0.0012  1.7293
   18PEO   C16212288  -0.027   3.683   1.554 -0.0792 -0.2011  0.4322
   18PEO   C16312289  -0.058   3.589   1.435  0.0848 -0.0207 -0.0652
   18PEO   H16412290  -0.106   3.642   1.351 -4.2589 -3.3776 -0.0076
   18PEO   H16512291   0.026   3.536   1.388 -1.0602 -3.8312  1.8023
   18PEO   O16612292  -0.150   3.488   1.479  0.6462 -0.6331 -0.1197
   18PEO   H16712293  -0.150   3.406   1.272  1.0991  0.9979  0.2789
   18PEO   H16812294  -0.298   3.433   1.344  1.1718 -0.2917 -2.0119
   18PEO   C16912295  -0.197   3.398   1.371  0.6119 -0.4746 -0.0435
   18PEO   C16A12296  -0.205   3.250   1.435 -0.3312 -0.5364 -0.1721
   18PEO   H16B12297  -0.273   3.247   1.521  1.3284 -0.3056  1.1943
   18PEO   H16C12298  -0.259   3.185   1.364 -0.9768 -3.1024  2.4597
   18PEO   O16D12299  -0.075   3.188   1.482 -0.2955 -0.5470  0.5974
   18PEO   H16E12300  -0.083   3.127   1.683 -3.3315  1.6464  0.6503
   18PEO   H16F12301  -0.128   3.288   1.650 -0.2176 -1.7064  1.4439
   18PEO   C17012302  -0.054   3.212   1.620  0.0626 -0.5623 -1.0723
   18PEO   C17112303   0.083   3.262   1.642  0.7725 -0.2456 -0.3260
   18PEO   H17212304   0.095   3.346   1.571 -0.7699 -0.4859 -0.9168
   18PEO   H17312305   0.087   3.312   1.740 -1.4010 -0.0179 -0.3147
   18PEO   O17412306   0.165   3.147   1.648  0.7784 -0.2165  0.0894
   18PEO   H17512307   0.308   3.211   1.772 -0.6075  0.8671 -1.0818
   18PEO   H17612308   0.354   3.243   1.607  0.6253  0.5368 -0.0346
   18PEO   C17712309   0.300   3.170   1.670 -0.0752  0.2904 -0.8995
   18PEO   C17812310   0.375   3.035   1.682 -0.0629  0.7084 -0.3073
   18PEO   H17912311   0.477   3.052   1.720  0.0204  0.1829 -0.2808
   18PEO   H17A12312   0.321   2.971   1.753 -0.3412 -0.3405 -1.4322
   18PEO   O17B12313   0.382   2.966   1.551  0.5675 -0.6394  0.4595
   18PEO   H17C12314   0.412   2.777   1.474  0.0063  1.1852 -1.0153
   18PEO   H17D12315   0.396   2.786   1.650 -0.8881 -0.3397 -0.3381
   18PEO   C17E12316   0.439   2.836   1.562  0.0193 -0.3776  0.0770
   18PEO   C17F12317   0.589   2.851   1.592  0.3917 -0.6440  0.5403
   18PEO   H18012318   0.645   2.780   1.530  1.3066 -1.3106  2.0663
   18PEO   H18112319   0.626   2.951   1.562 -1.1182  0.0391  0.8529
   18PEO   O18212320   0.608   2.844   1.732  0.1869  0.3659 -0.4041
   18PEO   H18312321   0.737   2.815   1.888  0.6261 -0.3979 -0.3345
   18PEO   H18412322   0.761   2.964   1.794 -1.5199  0.6293  2.2681
   18PEO   C18512323   0.742   2.856   1.785 -0.6949  0.6104 -0.0320
   18PEO   C18612324   0.856   2.785   1.702 -1.0669 -0.1654  0.7039
   18PEO   H18712325   0.849   2.793   1.593  1.5409 -0.0751  0.4970
   18PEO   H18812326   0.948   2.838   1.732 -1.5829  0.8854  0.5059
   18PEO   O18912327   0.885   2.656   1.740  0.1237  0.1440  0.2004
   18PEO   H18A12328   0.754   2.558   1.606 -0.0649  0.9330 -0.5596
   18PEO   H18B12329   0.685   2.606   1.764 -1.7394 -0.1419 -2.2085
   18PEO   C18C12330   0.774   2.566   1.714 -0.5606  0.0792 -0.3970
   18PEO   C18D12331   0.816   2.421   1.761 -0.0548  0.3117  0.4254
   18PEO   H18E12332   0.894   2.432   1.837 -0.1076  0.9740  0.3888
   18PEO   H18F12333   0.723   2.372   1.793 -0.0261  0.7335  1.1777
   18PEO   O19012334   0.871   2.347   1.648  0.1684  0.5283 -0.3003
   18PEO   H19112335   1.034   2.479   1.617 -0.1772  0.8482 -2.4742
   18PEO   H19212336   0.934   2.455   1.477  1.0924 -0.5247 -0.3934
   18PEO   C19312337   0.969   2.405   1.568 -0.5838 -0.7020  0.1903
   18PEO   C19412338   1.060   2.288   1.522 -0.5593 -0.0619 -0.2208
   18PEO   H19512339   1.166   2.313   1.506 -0.9030  4.1081  2.3864
   18PEO   H19612340   1.059   2.212   1.602 -2.4482 -0.1368 -0.2800
   18PEO   O19712341   0.990   2.213   1.423  0.0864 -0.1623  0.2732
   18PEO   H19812342   1.017   2.009   1.477 -2.0778  0.4984  0.3099
   18PEO   H19912343   1.143   2.091   1.369 -0.8354  1.0696 -0.8165
   18PEO   C19A12344   1.037   2.077   1.393 -0.4804 -0.1775  0.1161
   18PEO   C19B12345   0.969   2.006   1.276  0.0188  0.1809 -0.2177
   18PEO   H19C12346   0.972   1.897   1.292  0.6837  0.4746  1.9379
   18PEO   H19D12347   0.862   2.030   1.285  0.2541  2.0832 -1.7164
   18PEO   O19E12348   1.021   2.060   1.154  0.3464 -0.0727  0.2168
   18PEO   H19F12349   0.860   1.963   1.052  0.5110  0.0940  1.6750
   18PEO   H1A012350   1.021   1.880   1.051  1.8472  0.3027 -1.2373
   18PEO   C1A112351   0.968   1.976   1.044  0.4654 -0.2914  0.2322
   18PEO   C1A212352   0.991   2.043   0.908  0.3157 -0.0699  0.4002
   18PEO   H1A312353   1.094   2.080   0.897 -0.0967  1.7654  2.1473
   18PEO   H1A412354   0.962   1.962   0.838 -1.6146 -0.7375  1.8669
   18PEO   O1A512355   0.903   2.158   0.910 -0.5615  0.1742 -0.1298
   18PEO   H1A612356   0.978   2.247   0.739  0.0429 -0.5556 -0.0652
   18PEO   H1A712357   0.837   2.321   0.819 -2.0752 -1.1366  1.4420
   18PEO   C1A812358   0.883   2.225   0.790  0.5820  0.1067  1.2594
   18PEO   C1A912359   0.793   2.147   0.701 -0.3723  0.3768  0.2550
   18PEO   H1AA12360   0.808   2.190   0.601  1.6342  0.7688  0.6785
   18PEO   H1AB12361   0.808   2.038   0.709  2.5840  0.5578 -1.3631
   18PEO   O1AC12362   0.649   2.174   0.718 -0.0040  0.1797  0.0343
   18PEO   H1AD12363   0.607   2.122   0.509 -0.4623  2.0063  0.0519
   18PEO   H1AE12364   0.469   2.158   0.599 -0.0129  1.0191  2.0500
   18PEO   C1AF12365   0.568   2.112   0.611 -0.0559  0.3050  0.0673
   18PEO   C1B012366   0.538   1.962   0.634 -0.8617 -0.7112  0.1892
   18PEO   H1B112367   0.475   1.948   0.723 -0.1673 -1.2752  0.6053
   18PEO   H1B212368   0.474   1.928   0.551 -0.4777  0.7404 -0.7417
   18PEO   O1B312369   0.658   1.890   0.655  0.0284 -0.0372  0.3808
   18PEO   H1B412370   0.613   1.721   0.535  2.0963  0.3423 -0.1635
   18PEO   H1B512371   0.567   1.712   0.708 -0.6364 -2.0249 -1.5253
   18PEO   C1B612372   0.644   1.746   0.638  0.6885 -0.5764  0.5092
   18PEO   C1B712373   0.782   1.676   0.665  0.6243  0.5665 -0.1547
   18PEO   H1B812374   0.840   1.727   0.743 -0.8577 -0.0967  1.4333
   18PEO   H1B912375   0.758   1.576   0.703  1.8398  0.7505  1.1994
   18PEO   O1BA12376   0.863   1.670   0.547  0.0669  0.3262  0.2761
   18PEO   H1BB12377   0.733   1.545   0.437  0.1127 -1.3886 -0.1123
   18PEO   H1BC12378   0.872   1.463   0.503 -2.2881 -0.1792  0.5841
   18PEO   C1BD12379   0.840   1.557   0.457 -0.0915  0.3980  0.1334
   18PEO   C1BE12380   0.915   1.575   0.326  0.4990 -0.1325  0.6591
   18PEO   H1BF12381   0.883   1.492   0.261  1.9011 -0.3858  0.2539
   18PEO   H1C012382   0.887   1.671   0.279  2.9943  0.2271 -0.2930
   18PEO   O1C112383   1.053   1.562   0.344 -0.6821 -0.6150 -0.8547
   18PEO   H1C212384   1.122   1.677   0.190  0.8331 -0.2999  0.3862
   18PEO   H1C312385   1.097   1.501   0.154 -1.4725  0.3451 -0.1455
   18PEO   C1C412386   1.132   1.575   0.228 -0.4269 -0.5013  0.2266
   18PEO   C1C512387   1.276   1.553   0.280 -0.3630 -0.1289 -0.2442
   18PEO   H1C612388   1.350   1.574   0.200 -0.1845 -2.7105 -0.8450
   18PEO   H1C712389   1.300   1.627   0.358  1.1182  2.0344 -2.5892
   18PEO   O1C812390   1.295   1.422   0.321 -0.0119  0.0163 -0.4181
   18PEO   H1C912391   1.173   1.313   0.440  1.1520 -0.3160  0.4273
   18PEO   H1CA12392   1.213   1.471   0.513 -0.4757 -1.1895  2.0894
   18PEO   C1CB12393   1.253   1.388   0.453  0.5554  0.3030  0.5987
   18PEO   C1CC12394   1.374   1.318   0.523 -0.1656  0.6404  0.1873
   18PEO   H1CD12395   1.342   1.233   0.586  0.6246 -0.3720 -0.7371
   18PEO   H1CE12396   1.446   1.284   0.448 -0.4714  2.6264 -1.0741
   18PEO   O1CF12397   1.438   1.403   0.617 -0.8088 -0.1966  0.0882
   18PEO   H1D012398   1.618   1.332   0.595 -0.5011 -0.0601 -1.1917
   18PEO   H1D112399   1.524   1.241   0.713  0.7300 -0.5322  1.4835
   18PEO   C1D212400   1.545   1.343   0.677  0.1126 -1.0487 -0.4916
   18PEO   C1D312401   1.603   1.436   0.786 -0.5590 -0.0445  0.4981
   18PEO   H1D412402   1.701   1.393   0.810  0.8053  3.3251  1.6032
   18PEO   H1D512403   1.608   1.541   0.753 -0.1238 -0.5372 -1.1082
   18PEO   O1D612404   1.521   1.423   0.902 -0.0354 -0.1050 -0.0148
   18PEO   H1D712405   1.538   1.576   1.055  3.3848  2.2268 -0.6000
   18PEO   H1D812406   1.694   1.494   1.002  1.1181 -0.5802  1.9448
   18PEO   C1D912407   1.585   1.484   1.020  0.5063  0.6341 -0.6076
   18PEO   C1DA12408   1.589   1.372   1.129  0.6483  0.6163 -0.1437
   18PEO   H1DB12409   1.605   1.274   1.082 -1.2409  1.0728 -1.8785
   18PEO   H1DC12410   1.666   1.393   1.205  0.7405  2.5576 -0.7125
   18PEO   O1DD12411   1.460   1.357   1.203 -0.6357  0.1463 -0.7199
   18PEO   H1DE12412   1.485   1.537   1.301 -0.7747  0.4070  0.5468
   18PEO   H1DF12413   1.524   1.390   1.403  1.8853  1.4176  0.8593
   18PEO   C1E012414   1.459   1.433   1.326  0.6954  0.1379  1.1242
   18PEO   C1E112415   1.321   1.431   1.380  0.2797  0.6265  0.1220
   18PEO   H1E212416   1.334   1.462   1.485 -1.7605  2.0416  0.0080
   18PEO   H1E312417   1.255   1.505   1.333  1.4057  0.7191 -1.4006
   18PEO   O1E412418   1.270   1.295   1.383  0.1747 -0.1292 -0.1844
   18PEO   H1E512419   1.290   1.281   1.602  0.3991 -1.9551  0.9848
   18PEO   H1E612420   1.420   1.228   1.510 -0.1593  0.1495  4.0297
   18PEO   C1E712421   1.310   1.236   1.504 -0.0908  0.1236 -0.1342
   18PEO   C1E812422   1.283   1.083   1.502  0.3373  0.2674 -0.5056
   18PEO   H1E912423   1.275   1.062   1.610  0.6968  3.6238  0.2844
   18PEO   H1EA12424   1.194   1.076   1.438  1.3116  1.5405 -2.0772
   18PEO   O1EB12425   1.396   1.007   1.452  0.0113  0.0044 -0.3071
   18PEO   H1EC12426   1.481   1.130   1.298  2.1823 -0.4372 -1.6003
   18PEO   H1ED12427   1.339   1.027   1.250 -0.9999 -1.4147  1.4130
   18PEO   C1EE12428   1.429   1.034   1.313 -0.0807  0.9469 -0.0256
   18PEO   C1EF12429   1.529   0.923   1.258 -0.1351  0.2347  0.2655
   18PEO   H1F012430   1.557   0.941   1.153  1.8443 -1.7792  0.3861
   18PEO   H1F112431   1.624   0.923   1.313  0.8947 -1.6772 -1.4221
   18PEO   O1F212432   1.462   0.793   1.271 -0.7891  0.4987 -0.9812
   18PEO   H1F312433   1.620   0.669   1.323  1.7264  2.7495 -0.4966
   18PEO   H1F412434   1.605   0.713   1.148 -0.7349 -0.8436 -0.3331
   18PEO   C1F512435   1.551   0.685   1.239 -0.0406 -0.7514  0.1199
   18PEO   C1F612436   1.465   0.562   1.217 -0.1204  0.8579  0.2386
   18PEO   H1F712437   1.519   0.479   1.265  2.9522  2.3218 -0.4076
   18PEO   H1F812438   1.364   0.578   1.256 -0.0396  2.3965 -0.1370
   18PEO   O1F912439   1.475   0.531   1.074  0.7409 -0.3944  0.0776
   18PEO   H1FA12440   1.398   0.331   1.088  3.6966 -0.5602 -0.2700
   18PEO   H1FB12441   1.455   0.368   0.937 -0.9706  1.5123 -1.7129
   18PEO   C1FC12442   1.405   0.418   1.021  0.3260  0.0635  0.0096
   18PEO   C1FD12443   1.267   0.478   0.973 -0.2521 -0.4379 -0.1398
   18PEO   H1FE12444   1.287   0.573   0.921  1.8384  0.4667  2.1149
   18PEO   H1FF12445   1.226   0.400   0.908  0.3552 -0.5690 -0.3654
   18PEO   O20012446   1.182   0.508   1.092  0.4224  0.4014  0.0638
   18PEO   H20112447   1.164   0.399   1.280 -0.2092  0.3088 -0.6540
   18PEO   H20212448   1.193   0.304   1.132  0.8173  0.0980 -0.2561
   18PEO   C20312449   1.144   0.394   1.172 -0.0580 -0.1864 -0.6590
   18PEO   C20412450   0.992   0.391   1.153  0.4231  1.0730  0.7989
   18PEO   H20512451   0.959   0.434   1.058 -4.4061  0.2180  1.8103
   18PEO   H20612452   0.968   0.284   1.151  0.9374  0.9209  1.9092
   18PEO   O20712453   0.929   0.443   1.271  0.0127 -0.3978  0.6872
   18PEO   H20812454   0.755   0.326   1.262  1.6658 -0.0451 -1.6116
   18PEO   H20912455   0.746   0.491   1.206 -0.9362 -0.2890  0.2829
   18PEO   C20A12456   0.787   0.428   1.287 -0.0347  0.1265  0.1531
   18PEO   C20B12457   0.746   0.482   1.426  0.0643 -0.1770 -0.5857
   18PEO   H20C12458   0.804   0.568   1.464 -1.1775  0.8064 -0.8439
   18PEO   H20D12459   0.642   0.510   1.403  0.6159  1.4368 -1.3073
   18PEO   O20E12460   0.740   0.367   1.511  0.0287  0.9993 -0.2657
   18PEO   H20F12461   0.890   0.358   1.665 -0.0352  0.3778 -1.4305
   18PEO   H21012462   0.939   0.312   1.495 -0.0158  0.3640 -1.8065
   18PEO   C21112463   0.860   0.309   1.572  0.6918 -0.7157 -1.1033
   18PEO   C21212464   0.831   0.159   1.607 -0.5731  0.4462 -0.4576
   18PEO   H21312465   0.774   0.116   1.523 -1.0814  0.8205 -0.3126
   18PEO   H21412466   0.927   0.105   1.605  0.2281  1.8439 -1.4998
   18PEO   O21512467   0.766   0.145   1.737  0.0225 -0.0700  0.2768
   18PEO   H21612468   0.628   0.007   1.675 -1.6382 -2.3420  1.8000
   18PEO   H21712469   0.640   0.016   1.849  0.0264 -1.1198  0.2358
   18PEO   C21812470   0.700   0.020   1.757 -0.1194  0.5170  0.1812
   18PEO   C21912471   0.796  -0.096   1.743  0.0952  0.2879  1.0746
   18PEO   H21A12472   0.742  -0.189   1.763 -0.4434 -0.1171 -1.8647
   18PEO   H21B12473   0.830  -0.095   1.639 -0.9954 -0.1064  0.7008
   18PEO   O21C12474   0.895  -0.074   1.839 -1.1121 -0.4460  0.0032
   18PEO   H21D12475   0.890  -0.270   1.920  0.0087 -1.0486  3.3446
   18PEO   H21E12476   0.805  -0.155   2.006 -0.6807 -1.1920  0.5413
   18PEO   C21F12477   0.899  -0.164   1.950 -1.0009  0.2022 -0.2752
   18PEO   C22012478   1.007  -0.144   2.052 -0.9434 -0.3118  0.1182
   18PEO   H22112479   1.043  -0.040   2.042  1.7742 -0.8334  2.9579
   18PEO   H22212480   0.979  -0.154   2.158  1.0312  0.6593  0.7789
   18PEO   O22312481   1.127  -0.228   2.026  0.0521  0.7551  0.0780
   18PEO   H22412482   1.257  -0.147   2.177 -1.0601 -2.1762  0.1337
   18PEO   H22512483   1.298  -0.112   2.010 -0.4345  0.1908 -0.3294
   18PEO   C22612484   1.257  -0.190   2.076  0.3487 -0.4924 -0.6323
   18PEO   C22712485   1.361  -0.309   2.073 -0.2384 -0.1033 -0.1080
   18PEO   H22812486   1.367  -0.346   1.969  1.9532 -0.7147  0.1742
   18PEO   H22912487   1.451  -0.261   2.113 -0.2039 -0.4722  0.2531
   18PEO   O22A12488   1.330  -0.406   2.172  0.6222  0.3129 -0.6656
   18PEO   H22B12489   1.507  -0.525   2.146  0.2405 -3.0216 -1.7808
   18PEO   H22C12490   1.387  -0.544   2.019  1.6706  4.4456 -0.6383
   18PEO   C22D12491   1.399  -0.526   2.127 -0.3453 -0.6508  0.7036
   18PEO   C22E12492   1.346  -0.644   2.214 -0.4594 -0.0445 -0.4952
   18PEO   H22F12493   1.427  -0.719   2.209 -0.2051  0.0847  1.2046
   18PEO   H23012494   1.325  -0.601   2.312 -0.9112 -1.7967  0.2148
   18PEO   O23112495   1.221  -0.690   2.156 -0.3494  0.2297  0.3001
   18PEO   H23212496   1.132  -0.780   2.331 -5.1208 -0.8714 -0.5031
   18PEO   H23312497   1.219  -0.889   2.209 -1.2204  0.0442 -4.1148
   18PEO   C23412498   1.156  -0.801   2.226 -0.5228 -0.0316  0.1640
   18PEO   C23512499   1.017  -0.833   2.156  0.5705  0.0706  0.1789
   18PEO   H23612500   1.031  -0.829   2.047  3.5414 -4.6741  0.0983
   18PEO   H23712501   0.982  -0.935   2.178 -3.7149  0.9643 -1.6271
   18PEO   O23812502   0.922  -0.743   2.208 -0.0024  0.2431 -0.1167
   18PEO   H23912503   0.715  -0.738   2.260 -1.4384 -0.3324 -0.9540
   18PEO   H23A12504   0.792  -0.895   2.236 -1.9152 -0.3316  0.5704
   18PEO   C23B12505   0.787  -0.792   2.197 -0.0514 -0.2436  0.5095
   18PEO   C23C12506   0.728  -0.781   2.050  0.2828  0.8700 -0.2691
   18PEO   H23D12507   0.619  -0.798   2.049  0.0888  1.7514 -3.3511
   18PEO   H23E12508   0.750  -0.677   2.022  0.3038  1.0250  0.3052
   18PEO   O23F12509   0.782  -0.886   1.965 -0.5956  0.3553  0.1739
   18PEO   H24012510   0.922  -0.928   1.818 -1.6564 -1.8076 -2.0737
   18PEO   H24112511   0.909  -0.754   1.863  0.0011 -0.6455 -0.4797
   18PEO   C24212512   0.853  -0.847   1.846  0.2032 -0.9175  0.2958
   18PEO   C24312513   0.755  -0.817   1.726 -0.2066 -0.1029  0.4904
   18PEO   H24412514   0.800  -0.838   1.628 -0.8393 -2.6867  0.6751
   18PEO   H24512515   0.666  -0.881   1.734 -0.4740 -0.0106 -1.3355
   18PEO   O24612516   0.706  -0.685   1.767  0.1353  0.8282 -0.5704
   18PEO   H24712517   0.538  -0.684   1.646  0.8817 -0.4022 -1.3928
   18PEO   H24812518   0.647  -0.554   1.599 -2.2551 -2.0370 -1.9203
   18PEO   C24912519   0.610  -0.611   1.686 -0.6612  0.2250  0.4016
   18PEO   C24A12520   0.527  -0.519   1.780 -0.7922 -0.2930 -0.1997
   18PEO   H24B12521   0.449  -0.466   1.725 -1.4335  0.7417  1.6422
   18PEO   H24C12522   0.488  -0.587   1.857  0.1778 -2.2733 -1.3500
   18PEO   O24D12523   0.616  -0.425   1.840 -0.0926 -0.1318 -0.3596
   18PEO   H24E12524   0.474  -0.268   1.861  0.0528  1.0863  1.9307
   18PEO   H24F12525   0.620  -0.253   1.953  0.3609  0.3427  2.2971
   18PEO   C25012526   0.547  -0.327   1.917  1.0103  0.6173  0.2657
   18PEO   C25112527   0.461  -0.388   2.027  0.2938  0.5511  0.3286
   18PEO   H25212528   0.517  -0.478   2.056  1.4985  1.1602 -0.0335
   18PEO   H25312529   0.446  -0.330   2.119 -0.9376 -2.4227  2.1205
   18PEO   O25412530   0.339  -0.427   1.981  0.3148 -0.1071 -0.0263
   18PEO   H25512531   0.234  -0.415   2.150 -1.6627  1.2781 -1.9661
   18PEO   H25612532   0.285  -0.576   2.130  0.7398  1.6245  1.8409
   18PEO   C25712533   0.247  -0.491   2.071 -0.0180 -0.1608 -0.4137
   18PEO   C25812534   0.117  -0.525   1.994  0.8308 -0.3675  0.1135
   18PEO   H25912535   0.041  -0.549   2.070  0.8362  0.1141  0.2728
   18PEO   H25A12536   0.087  -0.435   1.938  0.6287  0.1062  0.9550
   18PEO   O25B12537   0.147  -0.641   1.909 -0.0349 -0.0161 -0.1901
   18PEO   H25C12538   0.041  -0.777   2.012  0.2595 -0.0727  0.8978
   18PEO   H25D12539   0.216  -0.779   2.058  0.9125  2.3398  0.6466
   18PEO   C25E12540   0.144  -0.766   1.975  0.2087  1.0169  1.0291
   18PEO   C25F12541   0.169  -0.868   1.865  0.7278 -0.2972 -0.2001
   18PEO   H26012542   0.161  -0.964   1.918  2.4528  0.7801  2.1641
   18PEO   H26112543   0.083  -0.874   1.797 -0.5869  0.0280  1.3560
   18PEO   O26212544   0.307  -0.850   1.805 -0.4751 -0.1057  0.3199
   18PEO   H26312545   0.397  -0.824   1.980 -1.0526  1.2291 -2.7347
   18PEO   H26412546   0.506  -0.822   1.843  2.0192 -3.0966  0.3098
   18PEO   C26512547   0.421  -0.877   1.886 -0.2122 -1.1142 -1.3056
   18PEO   C26612548   0.450  -1.027   1.909  0.0468 -0.0736  0.3424
   18PEO   H26712549   0.493  -1.063   1.814  4.4716  1.3900  1.5450
   18PEO   H26812550   0.534  -1.041   1.978  1.5939  1.7883 -1.0499
   18PEO   O26912551   0.342  -1.110   1.963  0.2728  0.2168  0.8540
   18PEO   H26A12552   0.459  -1.240   2.083  0.6944 -2.1396 -0.2951
   18PEO   H26B12553   0.417  -1.300   1.929 -3.3268 -1.9878 -0.1749
   18PEO   C26C12554   0.378  -1.237   2.009 -0.1287 -0.8306  0.6222
   18PEO   C26D12555   0.252  -1.302   2.063  0.0380 -0.3055  0.4682
   18PEO   H26E12556   0.283  -1.399   2.103  2.0297 -1.0227 -2.4785
   18PEO   H26F12557   0.208  -1.239   2.142  0.5664  1.4943 -0.6108
   18PEO   O27012558   0.154  -1.328   1.960  0.0108  0.9581 -0.6202
   18PEO   H27112559   0.044  -1.459   2.081  1.1578 -0.2269 -0.4179
   18PEO   H27212560  -0.022  -1.430   1.918 -1.8843  1.0172 -0.3822
   18PEO   C27312561   0.028  -1.383   2.004  0.5384 -0.6803 -0.7497
   18PEO   C27412562  -0.065  -1.282   2.063 -0.2322  0.1734  0.2648
   18PEO   H27512563  -0.048  -1.185   2.014 -3.6259  0.4615 -0.5698
   18PEO   H27612564  -0.171  -1.298   2.039 -0.9939  3.2656  1.2477
   18PEO   O27712565  -0.047  -1.280   2.208  0.0784  0.2253  0.1522
   18PEO   H27812566  -0.137  -1.217   2.379 -2.5075  0.0168 -0.9506
   18PEO   H27912567  -0.253  -1.254   2.248 -0.0211 -0.0719 -0.9327
   18PEO   C27A12568  -0.156  -1.208   2.271 -0.1563  0.4626 -1.3901
   18PEO   C27B12569  -0.178  -1.059   2.232  0.3217 -0.0701  0.1766
   18PEO   H27C12570  -0.254  -1.013   2.296 -0.2406 -0.4668 -0.1952
   18PEO   H27D12571  -0.083  -1.004   2.244  0.0498  0.2185  1.0058
   18PEO   O27E12572  -0.211  -1.053   2.097 -0.1000  0.5461 -0.0888
   18PEO   H27F12573  -0.156  -0.856   2.045  1.7665 -1.9530 -1.5569
   18PEO   H28012574  -0.313  -0.871   2.119  0.7580  2.9763 -0.3842
   18PEO   C28112575  -0.244  -0.923   2.050 -0.2508  0.6517  0.2607
   18PEO   C28212576  -0.295  -0.939   1.907 -0.0230  0.1312 -0.1077
   18PEO   H28312577  -0.373  -1.015   1.893 -0.4708  0.5414  0.1594
   18PEO   H28412578  -0.360  -0.853   1.886 -0.5963 -0.7040 -1.9655
   18PEO   O28512579  -0.188  -0.959   1.813  0.6040 -1.0588 -0.4284
   18PEO   H28612580  -0.263  -0.837   1.676 -0.9321  0.1656 -0.0782
   18PEO   H28712581  -0.330  -1.002   1.668  0.0414 -0.2896 -0.9533
   18PEO   C28812582  -0.238  -0.944   1.681 -0.4128  0.2806 -0.2227
   18PEO   C28912583  -0.121  -0.994   1.581 -0.0057 -0.3286 -0.5777
   18PEO   H28A12584  -0.173  -0.969   1.487 -1.4471 -0.7023  0.0815
   18PEO   H28B12585  -0.035  -0.927   1.591 -0.6054  1.2346 -4.2278
   18PEO   O28C12586  -0.100  -1.140   1.587  0.0068 -0.1072 -0.6998
   18PEO   H28D12587  -0.057  -1.235   1.761  1.3601 -1.5966 -0.1072
   18PEO   H28E12588   0.014  -1.070   1.744  2.2440 -0.3762 -0.3848
   18PEO   C28F12589  -0.005  -1.166   1.694  0.1169 -0.3160  0.1856
   18PEO   C29012590   0.129  -1.237   1.645  0.2844  0.3892 -0.2927
   18PEO   H29112591   0.174  -1.182   1.561  0.5280 -0.1333 -0.5078
   18PEO   H29212592   0.189  -1.258   1.734  1.0616  0.9383 -0.6852
   18PEO   O29312593   0.083  -1.357   1.583 -0.2417  0.5087 -0.3969
   18PEO   H29412594   0.147  -1.550   1.523  0.1306  1.9660 -3.2386
   18PEO   H29512595   0.258  -1.459   1.631  0.6001 -1.2811 -0.3086
   18PEO   C29612596   0.184  -1.450   1.551  0.2258  1.0866  0.2175
   18PEO   C29712597   0.259  -1.403   1.427 -0.5385 -0.3632 -0.3217
   18PEO   H29812598   0.315  -1.485   1.380 -0.8628 -1.9020  1.8378
   18PEO   H29912599   0.182  -1.361   1.361  0.0204  0.0426 -0.7222
   18PEO   O29A12600   0.361  -1.303   1.449  0.0179 -0.2432 -0.1451
   18PEO   H29B12601   0.354  -1.207   1.261 -4.0825  0.4119  3.6643
   18PEO   H29C12602   0.478  -1.335   1.275 -0.6692  1.8490 -1.3445
   18PEO   C29D12603   0.423  -1.256   1.329 -0.7157  0.5249  0.6222
   18PEO   C29E12604   0.530  -1.152   1.376  0.0430  0.5062  0.2533
   18PEO   H29F12605   0.557  -1.182   1.478 -2.5900 -0.7810  0.6574
   18PEO   H2A012606   0.613  -1.148   1.305  0.6402 -1.9084  0.7218
   18PEO   O2A112607   0.466  -1.015   1.384 -0.3279  0.0780 -0.9411
   18PEO   H2A212608   0.355  -1.024   1.569 -0.0728  1.1508 -0.0284
   18PEO   H2A312609   0.262  -1.065   1.426 -0.6877 -0.6639  0.5036
   18PEO   C2A412610   0.343  -1.000   1.462 -0.0970 -0.8334 -0.4982
   18PEO   C2A512611   0.302  -0.850   1.460  0.4336 -0.0347 -0.0992
   18PEO   H2A612612   0.203  -0.827   1.502 -2.9367 -2.0383 -5.7868
   18PEO   H2A712613   0.379  -0.801   1.521  0.3956  2.7422 -2.0857
   18PEO   O2A812614   0.307  -0.797   1.330  1.1674  0.3660  0.9493
   18PEO   H2A912615   0.419  -0.628   1.387 -0.1469  0.5245  1.2166
   18PEO   H2AA12616   0.237  -0.610   1.372 -0.0110  0.5787 -0.1667
   18PEO   C2AB12617   0.329  -0.653   1.330  0.2968  0.5854  0.4808
   18PEO   C2AC12618   0.339  -0.606   1.190  1.4847 -0.0329  0.3085
   18PEO   H2AD12619   0.425  -0.540   1.172 -0.0209  2.4446  1.6153
   18PEO   H2AE12620   0.357  -0.695   1.127  2.0362 -0.4372  1.0164
   18PEO   O2AF12621   0.222  -0.532   1.157  0.4226  0.0650 -0.6985
   18PEO   H2B012622   0.255  -0.472   0.962  0.5181  0.3135  0.4236
   18PEO   H2B112623   0.303  -0.361   1.087 -0.3890 -0.0534  1.0596
   18PEO   C2B212624   0.223  -0.433   1.060 -0.0222 -0.2504  0.4827
   18PEO   C2B312625   0.092  -0.359   1.054  0.4193  0.2750  0.1515
   18PEO   H2B412626   0.077  -0.322   1.157 -0.1475 -1.1721  0.6083
   18PEO   H2B512627   0.091  -0.269   0.991 -0.7339  0.9237  1.0597
   18PEO   O2B612628  -0.004  -0.454   1.005  0.1510 -0.5231  0.0628
   18PEO   H2B712629  -0.074  -0.577   0.862 -0.6504  0.5507  0.1708
   18PEO   H2B812630   0.098  -0.547   0.854 -1.6462 -2.6805  0.3080
   18PEO   C2B912631   0.002  -0.498   0.871 -0.2495  0.1141  0.7197
   18PEO   C2BA12632  -0.034  -0.388   0.766 -0.1371  0.1540  0.1615
   18PEO   H2BB12633  -0.096  -0.428   0.684  0.6846  0.7520 -0.7638
   18PEO   H2BC12634  -0.095  -0.306   0.809  1.3737  2.7655 -2.3188
   18PEO   O2BD12635   0.078  -0.336   0.704 -0.3883  0.6927  0.2923
   18PEO   H2BE12636   0.134  -0.284   0.763  0.6258  2.1999 -1.8841
   19PEO   H00112637   0.137   5.237   3.688  0.9872  0.0640 -1.6941
   19PEO   H00212638   0.052   5.121   3.609  0.1757  1.4248 -0.6573
   19PEO   H00312639  -0.033   5.223   3.737 -0.6124 -1.9073 -0.4195
   19PEO   C00412640   0.056   5.165   3.709  1.0309  0.4106 -0.2289
   19PEO   C00512641   0.088   5.050   3.811  0.3210  0.0298  0.4323
   19PEO   H00612642   0.101   5.080   3.916 -0.6910 -0.5497  0.7346
   19PEO   H00712643   0.012   4.971   3.798  2.3541 -1.6568 -2.1579
   19PEO   O00812644   0.206   4.995   3.762 -0.2392 -0.6121  0.0646
   19PEO   H00912645   0.182   4.788   3.806  1.1930 -0.9942 -0.2304
   19PEO   H00A12646   0.248   4.881   3.930  0.2235 -0.2201  0.1510
   19PEO   C00B12647   0.251   4.872   3.820 -0.0633  0.0139  0.1217
   19PEO   C00C12648   0.391   4.836   3.785  0.0259  0.6010 -0.1699
   19PEO   H00D12649   0.461   4.920   3.773  3.0362 -1.7073 -0.0762
   19PEO   H00E12650   0.427   4.782   3.874  0.4343  1.6433  0.3144
   19PEO   O00F12651   0.388   4.760   3.659 -0.7317 -0.7226 -0.0308
   19PEO   H01012652   0.546   4.856   3.552  2.0264 -1.0975 -0.7736
   19PEO   H01112653   0.522   4.692   3.500  0.5071  0.2407  0.1596
   19PEO   C01212654   0.519   4.756   3.589 -0.1525 -0.1490  0.4323
   19PEO   C01312655   0.628   4.706   3.680  0.3008  0.0651 -0.4336
   19PEO   H01412656   0.726   4.736   3.641  1.2425 -1.4010  0.6747
   19PEO   H01512657   0.617   4.753   3.779  0.2601  2.3368 -1.4484
   19PEO   O01612658   0.614   4.565   3.688  0.5522  0.0860 -0.0192
   19PEO   H01712659   0.685   4.538   3.876 -0.7136 -0.3259  0.0372
   19PEO   H01812660   0.815   4.518   3.748  0.6121 -1.0851 -0.0576
   19PEO   C01912661   0.709   4.502   3.775  0.5130 -0.0752  0.2201
   19PEO   C01A12662   0.684   4.352   3.773  0.1000  0.1610 -0.6470
   19PEO   H01B12663   0.745   4.307   3.853  1.1660 -1.8742 -2.5017
   19PEO   H01C12664   0.577   4.349   3.797  0.2036  1.2801  0.0347
   19PEO   O01D12665   0.718   4.280   3.652 -0.1482  0.0454  0.6875
   19PEO   H01E12666   0.556   4.150   3.695 -0.6991 -0.1426 -0.0233
   19PEO   H01F12667   0.712   4.073   3.683  0.6105  0.3086  1.5027
   19PEO   C02012668   0.653   4.156   3.642 -0.1748 -0.5598  0.8539
   19PEO   C02112669   0.628   4.133   3.493 -0.0787  0.6150  0.1785
   19PEO   H02212670   0.543   4.065   3.480 -1.4207  2.3625 -0.5650
   19PEO   H02312671   0.593   4.227   3.447  2.2923  1.1580 -0.6747
   19PEO   O02412672   0.742   4.085   3.433  0.2870 -0.0739  0.9876
   19PEO   H02512673   0.637   4.005   3.272 -1.1378  1.9658 -0.0268
   19PEO   H02612674   0.816   4.015   3.241 -1.4539 -1.5255 -1.1905
   19PEO   C02712675   0.728   4.065   3.285  0.0082  0.3664 -0.2866
   19PEO   C02812676   0.704   4.202   3.210 -1.1344  0.4332 -0.9832
   19PEO   H02912677   0.771   4.279   3.250 -2.5289  0.6923  1.0266
   19PEO   H02A12678   0.738   4.184   3.107 -3.1073 -0.3976 -1.5469
   19PEO   O02B12679   0.566   4.244   3.214  0.5941 -0.9924 -0.1543
   19PEO   H02C12680   0.601   4.380   3.062  0.7978 -0.3187  0.7662
   19PEO   H02D12681   0.503   4.436   3.204 -1.2740 -0.4757  0.2085
   19PEO   C02E12682   0.523   4.353   3.135  0.0357 -0.0612  0.0657
   19PEO   C02F12683   0.395   4.318   3.062  0.5282  0.1711  0.5009
   19PEO   H03012684   0.336   4.257   3.131  2.3419 -3.0059 -0.5630
   19PEO   H03112685   0.351   4.417   3.040  0.4837  1.0671  3.9749
   19PEO   O03212686   0.417   4.232   2.944 -0.7240  0.5424 -0.5518
   19PEO   H03312687   0.224   4.185   2.888  0.0421 -0.4036  0.4823
   19PEO   H03412688   0.304   4.054   2.988 -3.8186  0.8140  1.5646
   19PEO   C03512689   0.318   4.132   2.911 -0.2777 -1.2519 -0.1036
   19PEO   C03612690   0.369   4.075   2.774 -0.1303  0.1611  0.4105
   19PEO   H03712691   0.473   4.042   2.786  0.3854  1.1774 -0.9771
   19PEO   H03812692   0.296   3.996   2.747  1.4928 -0.4985 -2.5251
   19PEO   O03912693   0.368   4.175   2.670  0.1023  0.3783  0.4703
   19PEO   H03A12694   0.357   4.031   2.528  1.7805 -0.8778  0.6295
   19PEO   H03B12695   0.528   4.108   2.552  0.5653  1.2850 -0.3605
   19PEO   C03C12696   0.419   4.121   2.542  0.4470  0.2813 -0.5276
   19PEO   C03D12697   0.396   4.224   2.423 -0.1085 -0.1957 -0.8959
   19PEO   H03E12698   0.465   4.179   2.350  1.6585  0.1711  0.5161
   19PEO   H03F12699   0.291   4.214   2.389 -0.7186  1.5990  0.3229
   19PEO   O04012700   0.431   4.357   2.465 -0.4272 -0.3488 -0.2952
   19PEO   H04112701   0.500   4.437   2.271  1.1871  1.8995  0.1750
   19PEO   H04212702   0.490   4.542   2.413  1.4645 -1.2007  0.9563
   19PEO   C04312703   0.441   4.457   2.362  0.2556 -0.0069  0.0459
   19PEO   C04412704   0.298   4.493   2.316  0.2209  0.1922  1.1145
   19PEO   H04512705   0.302   4.527   2.211 -1.6281  0.0843  0.9769
   19PEO   H04612706   0.226   4.411   2.309 -0.8613  1.2712 -2.6800
   19PEO   O04712707   0.256   4.608   2.395 -0.3212  0.0489  0.2909
   19PEO   H04812708   0.052   4.577   2.379  2.0224 -1.9022  0.9820
   19PEO   H04912709   0.130   4.674   2.244 -0.5928 -1.7285  0.0172
   19PEO   C04A12710   0.125   4.656   2.352 -0.4909  0.3845  0.4183
   19PEO   C04B12711   0.097   4.789   2.422 -1.1293 -0.1456  0.0446
   19PEO   H04C12712   0.002   4.829   2.384 -0.0822  1.0968 -1.4153
   19PEO   H04D12713   0.092   4.767   2.530 -1.4513  2.4143  0.6281
   19PEO   O04E12714   0.204   4.882   2.395 -0.2067  0.6371  0.0337
   19PEO   H04F12715   0.323   4.874   2.571  0.9250  0.6885  0.5229
   19PEO   H05012716   0.191   4.996   2.559 -1.9102 -0.1285 -2.1266
   19PEO   C05112717   0.272   4.945   2.505  0.2425  0.2195  0.5307
   19PEO   C05212718   0.378   5.050   2.462  0.4979 -0.2193  0.3760
   19PEO   H05312719   0.360   5.086   2.360  1.7358 -2.5552 -0.7561
   19PEO   H05412720   0.371   5.135   2.531  2.2862  0.4118 -0.1625
   19PEO   O05512721   0.518   5.002   2.491  0.3410 -0.3813 -0.9529
   19PEO   H05612722   0.560   4.904   2.324  0.1176  0.6306 -0.9625
   19PEO   H05712723   0.474   4.795   2.449  1.0010 -1.3243 -0.7393
   19PEO   C05812724   0.548   4.874   2.429 -0.3768 -0.0899 -1.2115
   19PEO   C05912725   0.687   4.817   2.469  0.6260  0.2054  0.0030
   19PEO   H05A12726   0.707   4.731   2.404 -4.2415 -0.5571 -0.8649
   19PEO   H05B12727   0.768   4.890   2.454  0.4732 -0.0776 -2.6478
   19PEO   O05C12728   0.674   4.786   2.609  0.1016 -0.0164  0.3012
   19PEO   H05D12729   0.774   4.708   2.777  1.1780 -0.0374  0.0196
   19PEO   H05E12730   0.878   4.738   2.634  0.8042  0.1400  2.8922
   19PEO   C05F12731   0.781   4.698   2.668 -0.4017  0.2692 -0.1270
   19PEO   C06012732   0.758   4.553   2.636 -0.5890 -0.6683 -0.1156
   19PEO   H06112733   0.695   4.547   2.546 -1.3669  3.2877 -0.0524
   19PEO   H06212734   0.850   4.495   2.622 -0.1380  0.2604 -1.2341
   19PEO   O06312735   0.686   4.500   2.742 -0.0594 -0.3050 -0.2104
   19PEO   H06412736   0.593   4.332   2.636  1.7887 -0.5533 -0.2963
   19PEO   H06512737   0.547   4.378   2.802 -2.4731  2.7971 -1.9506
   19PEO   C06612738   0.632   4.367   2.733 -0.7084  0.6358  0.3725
   19PEO   C06712739   0.741   4.267   2.781  0.4215 -0.1082 -0.2476
   19PEO   H06812740   0.793   4.295   2.874  1.5234 -2.1880 -0.1862
   19PEO   H06912741   0.702   4.167   2.803  1.2471 -0.8372 -1.9609
   19PEO   O06A12742   0.836   4.263   2.672  0.9311  0.2676 -0.3340
   19PEO   H06B12743   0.982   4.148   2.768 -0.3576 -2.5723 -2.5114
   19PEO   H06C12744   1.015   4.335   2.757  0.6972 -1.6631  1.4689
   19PEO   C06D12745   0.972   4.244   2.714  0.6932 -0.9799 -0.0412
   19PEO   C06E12746   1.059   4.204   2.590 -0.0609 -0.6885 -0.9046
   19PEO   H06F12747   1.159   4.172   2.622 -0.0451 -0.1820 -0.4186
   19PEO   H07012748   1.020   4.121   2.529 -1.0724  0.7450 -2.2953
   19PEO   O07112749   1.074   4.315   2.510  0.5928 -0.4997  0.1835
   19PEO   H07212750   1.162   4.260   2.331 -2.9336  0.6491  0.2391
   19PEO   H07312751   1.273   4.265   2.474 -1.1427 -2.1242 -0.2657
   19PEO   C07412752   1.188   4.313   2.423  0.2203  0.3397 -0.3566
   19PEO   C07512753   1.239   4.452   2.384  0.1709  0.9331 -0.7062
   19PEO   H07612754   1.339   4.450   2.340  0.9115  2.7502  0.7502
   19PEO   H07712755   1.168   4.487   2.308 -0.7015 -0.1396 -0.4182
   19PEO   O07812756   1.227   4.551   2.493 -0.2545 -0.0003 -0.3113
   19PEO   H07912757   1.403   4.558   2.584  0.0014 -2.8223 -0.8526
   19PEO   H07A12758   1.295   4.425   2.642 -2.8750 -0.0418  1.2371
   19PEO   C07B12759   1.300   4.530   2.609 -0.5126 -0.4781 -0.0289
   19PEO   C07C12760   1.239   4.615   2.723 -0.1307 -0.1626 -1.0395
   19PEO   H07D12761   1.316   4.635   2.799 -2.5978  1.1621  1.2695
   19PEO   H07E12762   1.210   4.711   2.678 -1.4040  1.0588  2.1456
   19PEO   O07F12763   1.133   4.540   2.793 -0.1552 -0.2613 -0.0491
   19PEO   H08012764   1.123   4.698   2.945 -1.1552  0.0987  1.7076
   19PEO   H08112765   1.190   4.539   3.006 -1.2414 -2.9235 -0.0289
   19PEO   C08212766   1.123   4.588   2.934  0.0639  0.1883  0.7036
   19PEO   C08312767   0.990   4.536   2.997 -0.6953  0.4192 -0.0549
   19PEO   H08412768   0.975   4.574   3.099  2.0809 -0.5972  0.8276
   19PEO   H08512769   0.900   4.570   2.943 -0.7971  0.5420  0.1900
   19PEO   O08612770   0.997   4.393   2.995  0.3377 -0.4582 -0.8743
   19PEO   H08712771   1.063   4.366   3.200  1.5216  0.7876  0.6365
   19PEO   H08812772   1.197   4.347   3.086 -0.1589  0.9865 -1.0304
   19PEO   C08912773   1.089   4.330   3.099  0.1186  0.1763  0.4593
   19PEO   C08A12774   1.076   4.173   3.092 -0.2941 -0.1257 -0.0484
   19PEO   H08B12775   1.137   4.122   3.169  1.5201 -0.7325 -1.7965
   19PEO   H08C12776   0.968   4.151   3.099 -1.3124  3.0882 -3.1818
   19PEO   O08D12777   1.118   4.120   2.963  0.0783 -0.4969 -0.5721
   19PEO   H08E12778   1.023   3.931   2.984 -0.4817  1.1721  0.6812
   19PEO   H08F12779   1.197   3.933   3.020 -2.7068 -2.9488  1.6581
   19PEO   C09012780   1.119   3.974   2.953 -0.2938  0.9151  0.8995
   19PEO   C09112781   1.162   3.910   2.817  0.1437 -0.7409 -0.3182
   19PEO   H09212782   1.122   3.811   2.790 -3.4889  0.4912 -0.0794
   19PEO   H09312783   1.119   3.980   2.743  0.2886 -1.9170 -1.5501
   19PEO   O09412784   1.299   3.898   2.806  0.9109  0.2932 -0.1842
   19PEO   H09512785   1.453   3.894   2.658 -0.0877 -0.6405  2.2854
   19PEO   H09612786   1.279   3.908   2.603 -0.4543 -2.3977 -0.8704
   19PEO   C09712787   1.348   3.868   2.679 -0.5963 -0.1274  0.5506
   19PEO   C09812788   1.347   3.710   2.662  0.5124  0.0325  0.3333
   19PEO   H09912789   1.262   3.662   2.714 -0.2082  1.2532  0.3212
   19PEO   H09A12790   1.355   3.684   2.556  0.9267 -1.7309  0.7573
   19PEO   O09B12791   1.460   3.656   2.738  0.3658  0.0755  0.3541
   19PEO   H09C12792   1.535   3.507   2.618  0.3871 -0.4595 -0.2076
   19PEO   H09D12793   1.408   3.446   2.731 -0.4532  0.3490 -0.5240
   19PEO   C09E12794   1.490   3.518   2.718 -0.5635  0.4422 -0.7137
   19PEO   C09F12795   1.600   3.476   2.812  0.7109 -0.3558 -0.5077
   19PEO   H0A012796   1.669   3.406   2.763 -0.0412 -1.4397 -0.0642
   19PEO   H0A112797   1.668   3.560   2.831 -0.5991  0.8566 -1.0128
   19PEO   O0A212798   1.533   3.427   2.930 -0.1543  0.3561 -0.4942
   19PEO   H0A312799   1.540   3.369   3.133  0.9911 -0.8745  0.8445
   19PEO   H0A412800   1.656   3.502   3.091 -2.4758  1.9756  0.5397
   19PEO   C0A512801   1.609   3.409   3.057  0.4965  0.1988  0.9315
   19PEO   C0A612802   1.724   3.292   3.035  0.5083 -0.2972  0.4916
   19PEO   H0A712803   1.758   3.261   3.135 -0.7934 -2.2531  0.3785
   19PEO   H0A812804   1.675   3.199   3.002 -1.5504 -0.4944  3.6487
   19PEO   O0A912805   1.838   3.329   2.950  0.4062 -0.2072  0.2719
   19PEO   H0AA12806   1.973   3.429   3.091  0.0347  2.3478  0.7519
   19PEO   H0AB12807   1.850   3.522   3.014 -1.5527 -0.6855 -2.4255
   19PEO   C0AC12808   1.923   3.442   2.994  0.5164  0.3932  0.1983
   19PEO   C0AD12809   2.018   3.495   2.882  0.2468 -0.6531 -0.2825
   19PEO   H0AE12810   2.088   3.565   2.930  1.3617 -1.5343 -0.5996
   19PEO   H0AF12811   2.064   3.414   2.824  1.1158  0.5958 -1.4030
   19PEO   O0B012812   1.935   3.569   2.792 -0.3102  0.4787 -0.6607
   19PEO   H0B112813   2.033   3.529   2.615  2.4388  1.1518 -1.2966
   19PEO   H0B212814   2.095   3.660   2.704 -1.8176  2.1646  1.2202
   19PEO   C0B312815   1.999   3.616   2.673 -0.2471 -0.1583 -0.7640
   19PEO   C0B412816   1.905   3.712   2.600  0.5263  0.2816 -0.0718
   19PEO   H0B512817   1.916   3.699   2.492  2.7215 -0.2767  0.1663
   19PEO   H0B612818   1.802   3.682   2.623  0.5610 -0.0734 -0.3769
   19PEO   O0B712819   1.911   3.849   2.650  0.0679 -0.9108  0.0757
   19PEO   H0B812820   1.723   3.894   2.595  0.7253 -1.2969 -0.5834
   19PEO   H0B912821   1.843   3.935   2.469  0.3201  0.4420 -0.0180
   19PEO   C0BA12822   1.825   3.931   2.578  0.5950 -0.6545 -0.0016
   19PEO   C0BB12823   1.846   4.081   2.616 -0.0502  0.9847  0.0782
   19PEO   H0BC12824   1.920   4.086   2.698 -1.5964  0.1992  1.5838
   19PEO   H0BD12825   1.891   4.130   2.529  0.0123  1.2134  0.2372
   19PEO   O0BE12826   1.720   4.141   2.670  0.0622 -0.3236 -0.3462
   19PEO   H0BF12827   1.722   4.121   2.874 -0.6396 -2.0972  0.6549
   19PEO   H0C012828   1.626   3.990   2.785 -0.1931  0.4024 -0.3189
   19PEO   C0C112829   1.652   4.097   2.793 -0.4387  0.4668 -0.3832
   19PEO   C0C212830   1.513   4.165   2.828 -0.7890  0.4281  0.1848
   19PEO   H0C312831   1.459   4.188   2.735  1.1496 -1.1390 -1.4143
   19PEO   H0C412832   1.451   4.101   2.892 -0.3259  1.4489  1.7235
   19PEO   O0C512833   1.534   4.279   2.903 -0.5262 -0.2908 -1.2809
   19PEO   H0C612834   1.321   4.262   2.952  0.6905 -1.3575  0.1832
   19PEO   H0C712835   1.400   4.405   3.021 -0.6595  0.7543 -1.1256
   19PEO   C0C812836   1.414   4.298   2.998 -0.0776  0.4716  0.4095
   19PEO   C0C912837   1.440   4.219   3.136  0.0634 -0.0915  0.5693
   19PEO   H0CA12838   1.360   4.237   3.209  0.6387  1.5192  0.8297
   19PEO   H0CB12839   1.431   4.113   3.108 -0.0524  0.1445 -0.3374
   19PEO   O0CC12840   1.560   4.267   3.190 -0.1243  0.3061 -0.1126
   19PEO   H0CD12841   1.726   4.220   3.306  0.1222  2.3130 -2.1430
   19PEO   H0CE12842   1.642   4.086   3.236 -2.0570  1.7424 -3.6361
   19PEO   C0CF12843   1.624   4.182   3.286  0.2472  0.3233  0.3684
   19PEO   C0D012844   1.545   4.165   3.421 -0.0479 -0.4607  0.1646
   19PEO   H0D112845   1.610   4.103   3.486  1.5305  1.0497  0.1087
   19PEO   H0D212846   1.531   4.261   3.472 -0.4566  1.1655 -2.8176
   19PEO   O0D312847   1.422   4.089   3.406  0.2751 -0.8867 -0.0263
   19PEO   H0D412848   1.321   4.137   3.584  0.6225  0.0620  0.7766
   19PEO   H0D512849   1.440   4.003   3.600  3.1800  2.7232 -0.1909
   19PEO   C0D612850   1.365   4.049   3.534  0.0704 -0.2964  0.9038
   19PEO   C0D712851   1.268   3.945   3.506  0.8676  0.1464 -0.7997
   19PEO   H0D812852   1.316   3.855   3.464 -1.1487  0.1877 -3.4618
   19PEO   H0D912853   1.214   3.927   3.600  1.4632 -1.4680 -0.7235
   19PEO   O0DA12854   1.168   3.995   3.417 -0.1039  0.2200  0.2861
   19PEO   H0DB12855   0.955   3.985   3.409  1.1516  2.7102 -0.7746
   19PEO   H0DC12856   1.036   3.874   3.512 -0.4251 -1.7274 -0.2666
   19PEO   C0DD12857   1.044   3.920   3.413 -0.7101  0.0616  0.5162
   19PEO   C0DE12858   1.037   3.812   3.303 -0.0424 -0.4696  0.2889
   19PEO   H0DF12859   0.966   3.739   3.346 -2.3958  0.8681 -1.1196
   19PEO   H0E012860   0.992   3.860   3.215 -1.6217  1.3697  1.9924
   19PEO   O0E112861   1.160   3.744   3.295 -0.0311  0.3713  0.4663
   19PEO   H0E212862   1.192   3.739   3.086 -1.4558 -0.9014 -0.3501
   19PEO   H0E312863   1.114   3.593   3.167 -0.2936  0.4330 -0.5148
   19PEO   C0E412864   1.188   3.674   3.175  0.3520 -0.2274  0.2745
   19PEO   C0E512865   1.331   3.611   3.179 -0.6756  0.6819  0.3175
   19PEO   H0E612866   1.315   3.521   3.240 -2.7578  0.3303 -0.6549
   19PEO   H0E712867   1.367   3.568   3.084 -2.4795 -2.7839  1.0277
   19PEO   O0E812868   1.429   3.697   3.243  0.6222 -0.4791 -0.4219
   19PEO   H0E912869   1.505   3.877   3.270  1.2935 -1.8125  0.2892
   19PEO   H0EA12870   1.350   3.876   3.177  0.2892 -1.4614  1.0206
   19PEO   C0EB12871   1.447   3.827   3.191  0.5231 -1.1701  0.4328
   19PEO   C0EC12872   1.535   3.828   3.067  0.1077 -0.0634  0.2424
   19PEO   H0ED12873   1.499   3.746   3.002 -1.9374  1.7893 -1.1221
   19PEO   H0EE12874   1.527   3.927   3.020 -1.9125 -0.9985 -1.5792
   19PEO   O0EF12875   1.671   3.823   3.105  0.9020 -0.0124  1.1712
   19PEO   H0F012876   1.723   3.872   2.913 -0.1538 -2.1954 -1.2793
   19PEO   H0F112877   1.743   3.701   2.950 -0.3597 -0.4047  0.3807
   19PEO   C0F212878   1.754   3.802   2.992 -0.1935 -0.4268  0.3910
   19PEO   C0F312879   1.901   3.842   3.049 -0.1974  0.1932 -0.2033
   19PEO   H0F412880   1.971   3.859   2.966  0.5105  1.0176  0.5437
   19PEO   H0F512881   1.889   3.933   3.109 -2.0184 -0.3805  0.3908
   19PEO   O0F612882   1.955   3.737   3.128  0.4714  0.0243 -0.4721
   19PEO   H0F712883   2.036   3.825   3.311 -0.5596  1.2670 -0.9423
   19PEO   H0F812884   2.129   3.843   3.166 -0.0432  0.8191 -0.3930
   19PEO   C0F912885   2.060   3.773   3.217 -0.3661  0.9080 -0.6983
   19PEO   C0FA12886   2.145   3.644   3.253 -0.4258  0.4967  0.8855
   19PEO   H0FB12887   2.218   3.681   3.327  0.9173 -1.2089  0.4915
   19PEO   H0FC12888   2.089   3.564   3.304  1.1171 -0.4680  1.1410
   19PEO   O0FD12889   2.210   3.593   3.137  0.4488 -0.5332  0.6840
   19PEO   H0FE12890   2.218   3.382   3.187  2.7359 -2.4657  1.3027
   19PEO   H0FF12891   2.337   3.494   3.258 -0.8359  0.4038  0.1987
   19PEO   C10012892   2.282   3.469   3.166 -0.5997 -0.0661  0.1812
   19PEO   C10112893   2.383   3.447   3.049  0.0210  0.5949  0.2796
   19PEO   H10212894   2.458   3.525   3.026 -1.1651  2.0694  1.1989
   19PEO   H10312895   2.442   3.361   3.083  0.4852  1.6168  2.2094
   19PEO   O10412896   2.310   3.403   2.933  0.9648  0.3070  0.0927
   19PEO   H10512897   2.446   3.275   2.844 -1.1060 -1.4942 -1.1407
   19PEO   H10612898   2.463   3.450   2.809 -1.1721  1.4733  0.6139
   19PEO   C10712899   2.391   3.369   2.826  0.5293 -0.1580  0.3772
   19PEO   C10812900   2.315   3.357   2.695 -0.4791  0.2146  0.2909
   19PEO   H10912901   2.257   3.447   2.670  3.1151  2.1434 -2.0129
   19PEO   H10A12902   2.378   3.342   2.606  0.5375  0.0129  1.0310
   19PEO   O10B12903   2.230   3.241   2.700 -0.2401  0.3439  0.1687
   19PEO   H10C12904   2.213   3.192   2.498  1.2181 -2.0007  1.5380
   19PEO   H10D12905   2.074   3.280   2.570 -0.3729  0.8068  1.9330
   19PEO   C10E12906   2.156   3.210   2.590  0.0700  0.8486  0.3839
   19PEO   C10F12907   2.090   3.068   2.617 -0.0763  0.0672 -0.0779
   19PEO   H11012908   2.029   3.066   2.708 -3.8853 -4.5117 -2.3179
   19PEO   H11112909   2.014   3.051   2.540  1.4391  0.7747 -1.8139
   19PEO   O11212910   2.185   2.960   2.615  0.2603 -0.2382  0.4699
   19PEO   H11312911   2.015   2.840   2.647 -0.2568 -3.7253 -1.2384
   19PEO   H11412912   2.129   2.872   2.786  0.6180  3.8998 -0.7961
   19PEO   C11512913   2.120   2.848   2.679 -0.7671  0.0497  0.0254
   19PEO   C11612914   2.196   2.717   2.648  0.0386 -0.1019  0.5110
   19PEO   H11712915   2.297   2.747   2.619  0.0656 -0.3577  0.3364
   19PEO   H11812916   2.198   2.660   2.741  0.0033  0.2662  0.7385
   19PEO   O11912917   2.127   2.642   2.552  0.0146  0.2107  0.5371
   19PEO   H11A12918   2.078   2.440   2.531  0.6069 -1.1107  1.1916
   19PEO   H11B12919   2.261   2.478   2.562  1.5678  0.9005 -2.3977
   19PEO   C11C12920   2.165   2.506   2.517 -0.1498 -0.2772  0.3046
   19PEO   C11D12921   2.197   2.510   2.363 -0.5246  0.0591  0.5217
   19PEO   H11E12922   2.238   2.609   2.339  1.2893 -1.0445 -1.2532
   19PEO   H11F12923   2.281   2.442   2.341  0.1499  1.2670 -0.7599
   19PEO   O12012924   2.084   2.473   2.287  0.9179 -0.4436 -0.0875
   19PEO   H12112925   2.151   2.413   2.098  1.0255  0.3007  0.0330
   19PEO   H12212926   2.117   2.598   2.138 -1.7707  0.5585 -1.5689
   19PEO   C12312927   2.093   2.491   2.149  0.7723  0.0554  0.1217
   19PEO   C12412928   1.955   2.484   2.086 -0.2275  0.2195  0.3244
   19PEO   H12512929   1.903   2.567   2.136 -0.4737  0.6206 -0.5763
   19PEO   H12612930   1.965   2.519   1.982  1.4107 -0.5885  0.1821
   19PEO   O12712931   1.902   2.352   2.091 -0.5383  0.0859 -0.4299
   19PEO   H12812932   1.722   2.431   2.060 -0.0715 -0.5741 -0.2117
   19PEO   H12912933   1.728   2.243   2.062  0.6372 -0.0553  0.5994
   19PEO   C12A12934   1.774   2.338   2.031  0.0516 -0.2651 -1.0038
   19PEO   C12B12935   1.783   2.340   1.878  0.2623 -0.3702  0.8990
   19PEO   H12C12936   1.884   2.313   1.845 -0.5315 -0.0414 -2.0457
   19PEO   H12D12937   1.722   2.264   1.826  1.6467  0.4748 -2.1801
   19PEO   O12E12938   1.736   2.468   1.845  0.8349  0.0955  0.5306
   19PEO   H12F12939   1.745   2.391   1.652  1.5924 -0.2280  2.4202
   19PEO   H13012940   1.817   2.556   1.666  0.4135  0.9346 -0.0728
   19PEO   C13112941   1.735   2.489   1.699  0.6757  0.7765  0.2610
   19PEO   C13212942   1.590   2.530   1.650 -0.1907  0.3633 -0.3320
   19PEO   H13312943   1.558   2.626   1.692  1.8953  0.5935  0.8527
   19PEO   H13412944   1.585   2.540   1.540 -2.5751  0.5556 -0.2404
   19PEO   O13512945   1.495   2.439   1.699  0.6362  0.3257  0.2903
   19PEO   H13612946   1.308   2.411   1.608  0.1725  2.4316 -1.8875
   19PEO   H13712947   1.343   2.579   1.653 -1.4348 -0.6336 -0.1330
   19PEO   C13812948   1.356   2.475   1.684 -0.6685 -0.2096  1.0552
   19PEO   C13912949   1.295   2.458   1.822 -0.2108 -0.0632 -0.3683
   19PEO   H13A12950   1.361   2.508   1.895  0.2076  0.6057 -1.1924
   19PEO   H13B12951   1.200   2.515   1.828 -1.0760 -1.5496  0.8970
   19PEO   O13C12952   1.285   2.330   1.863  0.2427  0.9432  1.0513
   19PEO   H13D12953   1.076   2.354   1.881 -0.1373  0.2872 -0.7007
   19PEO   H13E12954   1.169   2.327   2.032 -0.5347  0.3408 -0.4849
   19PEO   C13F12955   1.160   2.299   1.926 -0.4428  0.0516 -0.4171
   19PEO   C14012956   1.129   2.147   1.925 -0.2848  0.0947 -0.3890
   19PEO   H14112957   1.029   2.144   1.971 -0.2424  0.5174 -0.2569
   19PEO   H14212958   1.135   2.114   1.821  0.6434  2.2846 -1.1053
   19PEO   O14312959   1.226   2.076   2.011 -0.5081  0.0915  0.2301
   19PEO   H14412960   1.179   1.872   1.958 -1.1834  0.2788 -0.0811
   19PEO   H14512961   1.114   1.946   2.116 -1.2778 -2.2626 -1.0383
   19PEO   C14612962   1.195   1.941   2.042  0.1363 -0.4532  0.2934
   19PEO   C14712963   1.315   1.880   2.119 -0.6424 -0.3821  0.0119
   19PEO   H14812964   1.324   1.777   2.082  1.4472  0.0963 -0.9867
   19PEO   H14912965   1.414   1.923   2.099  0.7612 -3.6187 -0.7242
   19PEO   O14A12966   1.296   1.887   2.271 -0.8661  0.0674 -0.5326
   19PEO   H14B12967   1.500   1.839   2.280 -0.9413 -2.9414 -1.2890
   19PEO   H14C12968   1.392   1.717   2.341 -1.4308 -0.0843 -0.2178
   19PEO   C14D12969   1.406   1.826   2.335 -0.5580 -0.1613  0.1553
   19PEO   C14E12970   1.417   1.878   2.481 -0.2733 -0.4024 -0.4829
   19PEO   H14F12971   1.518   1.860   2.519 -0.7982 -1.8533  0.3101
   19PEO   H15012972   1.383   1.982   2.489 -0.6364 -0.5927  0.6568
   19PEO   O15112973   1.325   1.802   2.566 -0.2386  0.0050 -0.0226
   19PEO   H15212974   1.191   1.887   2.711  0.5095  4.2346  0.5718
   19PEO   H15312975   1.343   1.961   2.696 -3.3935  1.6327  0.2284
   19PEO   C15412976   1.297   1.861   2.694 -0.4372  0.1680 -0.1074
   19PEO   C15512977   1.352   1.771   2.803 -0.0938 -0.6914 -0.1904
   19PEO   H15612978   1.354   1.813   2.904 -0.5047 -0.0353 -0.4496
   19PEO   H15712979   1.290   1.680   2.808 -0.4263 -0.4088  1.2706
   19PEO   O15812980   1.492   1.740   2.776 -0.4485  0.5051 -0.4013
   19PEO   H15912981   1.513   1.562   2.888  0.9357 -0.1244 -0.7394
   19PEO   H15A12982   1.544   1.718   2.974  0.9659 -0.9176  1.4915
   19PEO   C15B12983   1.554   1.664   2.879  0.3105  0.2773  0.7116
   19PEO   C15C12984   1.707   1.665   2.838 -0.1755  0.0880 -0.0141
   19PEO   H15D12985   1.743   1.769   2.840 -0.0327  0.0261  1.0129
   19PEO   H15E12986   1.767   1.630   2.924 -0.3548  2.3653  1.1122
   19PEO   O15F12987   1.738   1.588   2.713  0.6977 -0.7469 -0.2955
   19PEO   H16012988   1.622   1.707   2.588 -0.0631 -0.0535  2.6603
   19PEO   H16112989   1.707   1.570   2.514  1.9214 -1.1480  0.5958
   19PEO   C16212990   1.718   1.653   2.585  0.2274  0.4220 -0.8959
   19PEO   C16312991   1.846   1.732   2.532  0.2969 -0.5265 -0.3004
   19PEO   H16412992   1.812   1.785   2.442  2.7894 -0.3907 -1.2310
   19PEO   H16512993   1.864   1.807   2.611 -0.2431 -1.8670  1.1679
   19PEO   O16612994   1.959   1.644   2.506  0.0861 -0.2884  0.5312
   19PEO   H16712995   2.088   1.813   2.514 -4.2327 -0.3983  2.6094
   19PEO   H16812996   2.046   1.739   2.353 -0.2320 -1.6756  0.3603
   19PEO   C16912997   2.069   1.719   2.459 -0.3567 -0.2445  0.6763
   19PEO   C16A12998   2.198   1.626   2.471 -0.1640  0.6982  0.3543
   19PEO   H16B12999   2.288   1.685   2.492 -0.3250 -0.0646  3.7417
   19PEO   H16C13000   2.198   1.561   2.560  0.8424 -1.9265 -1.4328
   19PEO   O16D13001   2.202   1.545   2.356  0.1371  0.3662  0.4241
   19PEO   H16E13002   2.040   1.402   2.404  0.1999 -0.3092  1.3069
   19PEO   H16F13003   2.215   1.345   2.418 -1.0100  0.7735  2.2560
   19PEO   C17013004   2.144   1.411   2.367 -0.0905  0.6012  0.6834
   19PEO   C17113005   2.133   1.359   2.216 -1.5170  0.2243  0.0454
   19PEO   H17213006   2.079   1.264   2.230 -0.0719 -0.5508  0.5935
   19PEO   H17313007   2.065   1.418   2.154 -0.5863 -1.4593 -2.7401
   19PEO   O17413008   2.261   1.348   2.158 -0.4622  0.0566 -0.0684
   19PEO   H17513009   2.341   1.372   1.981  1.1995 -0.4063  2.2517
   19PEO   H17613010   2.164   1.354   1.972 -0.9520 -2.4944 -1.3253
   19PEO   C17713011   2.255   1.316   2.020 -0.3695  0.1629 -0.1407
   19PEO   C17813012   2.272   1.165   1.986  0.0804  0.2224 -0.9436
   19PEO   H17913013   2.293   1.151   1.879  3.2712 -0.2282 -0.3551
   19PEO   H17A13014   2.345   1.111   2.048 -1.0506  0.2101  0.4272
   19PEO   O17B13015   2.143   1.096   2.006 -0.3514 -0.5144 -0.1813
   19PEO   H17C13016   2.196   0.899   2.027 -0.7845  3.1720  2.4431
   19PEO   H17D13017   2.197   0.960   1.865  3.9179  0.0352  1.2024
   19PEO   C17E13018   2.140   0.965   1.959 -0.1903  0.3539 -1.0716
   19PEO   C17F13019   1.994   0.920   1.949  0.4324 -0.0161  0.0722
   19PEO   H18013020   1.944   1.001   1.894  2.5054 -0.8685 -3.3841
   19PEO   H18113021   1.984   0.840   1.874 -2.0366  0.4608 -0.1977
   19PEO   O18213022   1.926   0.892   2.070  0.7753 -0.4114 -0.4158
   19PEO   H18313023   1.799   0.745   2.005  1.9813  0.2835  0.2862
   19PEO   H18413024   1.729   0.910   1.998 -2.0178  0.0869  0.9427
   19PEO   C18513025   1.792   0.841   2.057 -0.3656  0.4817 -0.3027
   19PEO   C18613026   1.723   0.804   2.198  0.6147 -0.6990  0.9840
   19PEO   H18713027   1.639   0.738   2.174 -1.5345  2.1760  0.0517
   19PEO   H18813028   1.800   0.742   2.247 -0.1080 -1.4497  1.1919
   19PEO   O18913029   1.675   0.916   2.273  0.2909  0.0100  0.2745
   19PEO   H18A13030   1.701   1.066   2.121 -2.2869  1.1404 -0.7178
   19PEO   H18B13031   1.646   1.124   2.281 -0.1046  0.4725  1.0621
   19PEO   C18C13032   1.634   1.044   2.206 -0.4204  0.8246  0.7373
   19PEO   C18D13033   1.491   1.025   2.144 -0.3958  0.2749 -0.2365
   19PEO   H18E13034   1.435   0.962   2.214  0.0346 -1.1222 -1.1201
   19PEO   H18F13035   1.434   1.118   2.158  0.3256  0.5364  1.2389
   19PEO   O19013036   1.483   0.972   2.011  0.2004 -0.4933 -0.2420
   19PEO   H19113037   1.615   1.096   1.923  0.2006 -0.1400 -1.1135
   19PEO   H19213038   1.440   1.136   1.898 -2.0098 -1.7039 -0.7720
   19PEO   C19313039   1.515   1.056   1.904  0.0476  0.1315 -0.8867
   19PEO   C19413040   1.502   0.990   1.768  0.4571 -0.1414  0.3719
   19PEO   H19513041   1.412   0.928   1.775  0.1131  0.5410  3.5032
   19PEO   H19613042   1.499   1.070   1.692 -2.8402 -2.5789 -2.3706
   19PEO   O19713043   1.619   0.911   1.739 -0.3673 -0.8711  0.3619
   19PEO   H19813044   1.626   0.925   1.531 -1.5189  0.4490 -0.1425
   19PEO   H19913045   1.527   0.795   1.587  1.3996 -1.7705 -0.6142
   19PEO   C19A13046   1.620   0.849   1.610  0.3687 -0.0357 -0.4230
   19PEO   C19B13047   1.737   0.762   1.588 -0.0732 -0.3702 -0.2133
   19PEO   H19C13048   1.739   0.741   1.480  1.1634 -2.2670  0.1190
   19PEO   H19D13049   1.834   0.809   1.610  1.2050 -3.6355  1.9674
   19PEO   O19E13050   1.726   0.636   1.661  0.2452 -0.0524  0.7293
   19PEO   H19F13051   1.939   0.637   1.705  1.4946 -1.3124 -2.4167
   19PEO   H1A013052   1.877   0.586   1.540 -1.5596 -1.1649 -0.7543
   19PEO   C1A113053   1.860   0.584   1.649 -0.2103 -0.9134 -0.5243
   19PEO   C1A213054   1.858   0.434   1.688 -0.6773  0.0885  0.2105
   19PEO   H1A313055   1.771   0.379   1.651 -0.6770 -0.4324  0.9734
   19PEO   H1A413056   1.952   0.394   1.646 -0.2678  1.0905  0.1320
   19PEO   O1A513057   1.879   0.430   1.827  0.2339  0.0565 -0.0829
   19PEO   H1A613058   1.696   0.348   1.838 -0.4716 -0.0444  0.0212
   19PEO   H1A713059   1.703   0.511   1.911  2.2320  0.6591  0.4001
   19PEO   C1A813060   1.759   0.418   1.895  0.0756 -0.6860  0.2248
   19PEO   C1A913061   1.779   0.352   2.027  0.2844  1.1095  0.0930
   19PEO   H1AA13062   1.685   0.297   2.042  0.2018  1.5911  1.4740
   19PEO   H1AB13063   1.867   0.285   2.027  0.4753  1.2777 -1.8333
   19PEO   O1AC13064   1.797   0.454   2.118 -1.1743 -0.4023  0.1768
   19PEO   H1AD13065   1.812   0.507   2.324  1.1429  1.1079 -2.1883
   19PEO   H1AE13066   1.792   0.330   2.301 -0.2768  0.6168  2.3380
   19PEO   C1AF13067   1.767   0.429   2.260  0.6891 -0.1722 -0.3937
   19PEO   C1B013068   1.613   0.435   2.291 -0.0140  0.1947 -0.1028
   19PEO   H1B113069   1.601   0.459   2.398 -0.8559  0.5359 -0.2641
   19PEO   H1B213070   1.565   0.509   2.225  0.0686  0.1439 -0.2193
   19PEO   O1B313071   1.564   0.312   2.256  0.3716  0.3460 -0.0070
   19PEO   H1B413072   1.363   0.363   2.215 -2.4480 -1.2039  0.5307
   19PEO   H1B513073   1.402   0.315   2.390 -0.0496 -0.5260  0.2372
   19PEO   C1B613074   1.421   0.299   2.283 -0.3078  0.1637  0.0873
   19PEO   C1B713075   1.377   0.150   2.258  0.6051  0.3687  0.3953
   19PEO   H1B813076   1.279   0.138   2.306  1.3757 -0.0634  1.9164
   19PEO   H1B913077   1.360   0.133   2.150 -1.7171 -0.3898  0.8265
   19PEO   O1BA13078   1.465   0.053   2.308  0.2016 -0.0465 -0.6083
   19PEO   H1BB13079   1.643   0.089   2.204  0.9860 -1.1433  0.6845
   19PEO   H1BC13080   1.521  -0.024   2.136 -2.1398  2.3863 -0.1332
   19PEO   C1BD13081   1.572   0.009   2.228 -0.1428 -0.4020 -0.1215
   19PEO   C1BE13082   1.641  -0.110   2.295  0.4154 -0.2235 -0.0899
   19PEO   H1BF13083   1.567  -0.162   2.357  2.6782 -0.9233  2.2073
   19PEO   H1C013084   1.667  -0.185   2.219 -0.9032  1.0896 -1.9432
   19PEO   O1C113085   1.748  -0.067   2.375 -0.1123  0.2924  0.2954
   19PEO   H1C213086   1.926  -0.181   2.352 -0.5828  1.3356 -1.3324
   19PEO   H1C313087   1.778  -0.270   2.398  0.6011  0.5013  0.5642
   19PEO   C1C413088   1.834  -0.176   2.411  0.5158  0.5595  0.5097
   19PEO   C1C513089   1.869  -0.152   2.555  0.0698 -0.1674  0.3928
   19PEO   H1C613090   1.790  -0.091   2.601 -0.2071  1.0532 -1.5633
   19PEO   H1C713091   1.867  -0.247   2.611 -1.8089 -0.5406 -0.2426
   19PEO   O1C813092   1.998  -0.086   2.552  0.0761  0.3446  0.1682
   19PEO   H1C913093   2.122  -0.171   2.673  0.2970  0.1918 -0.8904
   19PEO   H1CA13094   1.997  -0.080   2.765 -0.7493 -0.2401 -0.3288
   19PEO   C1CB13095   2.064  -0.077   2.678  0.3657  0.1832  0.5269
   19PEO   C1CC13096   2.159   0.042   2.686 -0.1013  0.2910  0.1386
   19PEO   H1CD13097   2.240   0.023   2.759 -0.1160  0.4389  0.1934
   19PEO   H1CE13098   2.216   0.061   2.593  1.4814  1.3841  1.2610
   19PEO   O1CF13099   2.101   0.165   2.717 -0.1853 -0.0176 -0.2903
   19PEO   H1D013100   2.257   0.284   2.630 -1.6893  0.0582 -1.2184
   19PEO   H1D113101   2.240   0.314   2.802 -2.0559  0.5958  2.0623
   19PEO   C1D213102   2.183   0.286   2.711  0.3035  0.0150  0.6719
   19PEO   C1D313103   2.094   0.405   2.678  0.5966  0.1002 -0.2213
   19PEO   H1D413104   2.154   0.488   2.638  0.2113 -0.9470 -3.2171
   19PEO   H1D513105   2.037   0.363   2.594  0.3954 -0.3790  0.1525
   19PEO   O1D613106   1.993   0.438   2.779  0.3354  0.2459 -0.3209
   19PEO   H1D713107   2.158   0.476   2.895  0.2320  1.3587 -0.4992
   19PEO   H1D813108   2.018   0.456   2.991  1.1002 -1.1041 -0.3187
   19PEO   C1D913109   2.050   0.499   2.895  0.0255  0.4305 -0.0393
   19PEO   C1DA13110   2.025   0.655   2.888 -0.7082 -0.3418 -0.7582
   19PEO   H1DB13111   2.093   0.711   2.954 -2.2804  2.3551 -1.2789
   19PEO   H1DC13112   2.038   0.692   2.785  0.5161  1.1480 -0.1163
   19PEO   O1DD13113   1.891   0.684   2.918 -1.1576 -0.0402  0.1112
   19PEO   H1DE13114   1.923   0.887   2.962 -1.3736  3.1829 -0.7707
   19PEO   H1DF13115   1.757   0.833   2.984 -0.6592 -2.1666 -0.1802
   19PEO   C1E013116   1.845   0.821   2.920  0.0536  0.8374  0.1066
   19PEO   C1E113117   1.836   0.887   2.773  0.1881  0.0487 -0.9573
   19PEO   H1E213118   1.840   0.995   2.791  1.3434 -0.1255 -0.0913
   19PEO   H1E313119   1.923   0.864   2.710 -0.3054  2.9764 -2.9464
   19PEO   O1E413120   1.719   0.827   2.717 -0.0099  0.1564  0.3116
   19PEO   H1E513121   1.584   0.819   2.564 -2.1645  2.8162 -0.0912
   19PEO   H1E613122   1.746   0.852   2.516  3.0335  0.9313  2.2253
   19PEO   C1E713123   1.672   0.878   2.593  0.1747 -0.5093  0.1270
   19PEO   C1E813124   1.612   1.016   2.602 -0.0826  0.5282  0.2199
   19PEO   H1E913125   1.560   1.025   2.506  0.4824 -0.8195 -0.2408
   19PEO   H1EA13126   1.548   1.019   2.691  1.5725  2.2744  1.4443
   19PEO   O1EB13127   1.715   1.119   2.606 -0.0437 -0.0661  0.4023
   19PEO   H1EC13128   1.744   1.334   2.622 -2.3521  1.7896  2.0732
   19PEO   H1ED13129   1.636   1.256   2.745  0.5462 -1.2164 -0.1057
   19PEO   C1EE13130   1.673   1.252   2.641 -0.8465 -0.3114 -0.6766
   19PEO   C1EF13131   1.567   1.291   2.551  0.8138 -0.0428  0.2195
   19PEO   H1F013132   1.581   1.398   2.527  2.5587 -0.3389 -0.2359
   19PEO   H1F113133   1.582   1.249   2.450  0.8305  0.5418 -0.0301
   19PEO   O1F213134   1.442   1.255   2.602 -0.1849  0.2030 -0.2609
   19PEO   H1F313135   1.369   1.230   2.396  1.3413 -2.2432  0.1376
   19PEO   H1F413136   1.297   1.360   2.502  0.5872 -0.3465  0.4683
   19PEO   C1F513137   1.339   1.258   2.498  0.5388 -0.3327 -0.5958
   19PEO   C1F613138   1.229   1.156   2.525 -0.4168 -0.6119  0.5259
   19PEO   H1F713139   1.191   1.171   2.627  1.2032  1.6977  0.8713
   19PEO   H1F813140   1.151   1.185   2.453  0.1125 -2.4621 -0.8707
   19PEO   O1F913141   1.288   1.030   2.503  0.4693  0.4547  0.0849
   19PEO   H1FA13142   1.149   0.913   2.400 -1.3931 -1.1227  0.2280
   19PEO   H1FB13143   1.098   0.936   2.562 -0.9988 -3.0500 -1.2726
   19PEO   C1FC13144   1.189   0.921   2.502  0.2066  0.0994 -0.4392
   19PEO   C1FD13145   1.251   0.789   2.543  0.3927  0.4743 -0.2291
   19PEO   H1FE13146   1.173   0.714   2.526  0.6014  0.0508  0.6221
   19PEO   H1FF13147   1.332   0.764   2.472  1.4501 -0.0941  1.1262
   19PEO   O20013148   1.302   0.782   2.674  0.2897  0.3310 -0.5658
   19PEO   H20113149   1.454   0.645   2.627 -0.6311  0.1516 -0.2838
   19PEO   H20213150   1.305   0.569   2.694  0.5596 -0.2244 -0.8757
   19PEO   C20313151   1.370   0.657   2.697 -0.0165  0.1774  0.4612
   19PEO   C20413152   1.428   0.651   2.833  0.2434  0.6904 -0.2653
   19PEO   H20513153   1.513   0.582   2.828 -0.2965  0.1088 -2.3703
   19PEO   H20613154   1.466   0.752   2.855 -0.5850  1.3146 -1.5215
   19PEO   O20713155   1.323   0.607   2.926 -0.0794  0.7564 -0.1081
   19PEO   H20813156   1.478   0.615   3.077 -2.0966  2.6594  1.2477
   19PEO   H20913157   1.405   0.461   3.063 -0.5608  0.4198  0.1619
   19PEO   C20A13158   1.380   0.568   3.061 -0.9434  0.3412  0.6811
   19PEO   C20B13159   1.286   0.607   3.168  0.7342 -0.4886  0.2662
   19PEO   H20C13160   1.183   0.591   3.133  0.8324  1.8517 -1.3015
   19PEO   H20D13161   1.306   0.557   3.264 -1.6408 -1.8443  0.1293
   19PEO   O20E13162   1.290   0.747   3.194  0.3956  0.2978 -0.3058
   19PEO   H20F13163   1.503   0.753   3.222 -1.5774 -2.1460 -0.9206
   19PEO   H21013164   1.402   0.762   3.376 -2.4049 -0.1873 -0.3823
   19PEO   C21113165   1.411   0.790   3.269 -0.2974  0.2454 -0.1281
   19PEO   C21213166   1.406   0.946   3.257 -0.3499 -0.2374 -0.2228
   19PEO   H21313167   1.508   0.983   3.278  0.0712 -1.1542 -0.6234
   19PEO   H21413168   1.379   0.976   3.155 -1.8954  0.9904  0.4947
   19PEO   O21513169   1.312   0.997   3.350  0.0832  0.0868 -0.5223
   19PEO   H21613170   1.219   1.157   3.243  1.7307 -2.2147 -1.3348
   19PEO   H21713171   1.373   1.194   3.314 -1.8342  1.1614  0.1787
   19PEO   C21813172   1.280   1.137   3.332 -0.8449 -0.2580  1.0517
   19PEO   C21913173   1.232   1.187   3.464  0.2453 -0.2883 -0.6208
   19PEO   H21A13174   1.166   1.274   3.452  0.6158  0.1109  0.1182
   19PEO   H21B13175   1.166   1.111   3.508  0.9425  0.1325  1.2803
   19PEO   O21C13176   1.348   1.216   3.547  0.4901 -0.6641  0.0140
   19PEO   H21D13177   1.373   1.186   3.743  1.5846  2.1117 -0.2520
   19PEO   H21E13178   1.213   1.247   3.707 -0.0580  2.3449  0.1771
   19PEO   C21F13179   1.319   1.255   3.677 -0.1388  0.3445 -0.7730
   19PEO   C22013180   1.395   1.392   3.708  0.7156  0.0279 -0.3480
   19PEO   H22113181   1.346   1.429   3.799 -0.5830  1.8026 -1.7181
   19PEO   H22213182   1.501   1.369   3.730  0.6088  2.0657  2.8892
   19PEO   O22313183   1.365   1.476   3.593  0.3458 -0.5315  0.0573
   19PEO   H22413184   1.355   1.672   3.682  0.6473  1.4989 -0.6125
   19PEO   H22513185   1.375   1.661   3.515  1.0462 -0.5876 -0.9833
   19PEO   C22613186   1.406   1.610   3.607 -0.4148 -0.0191 -0.1396
   19PEO   C22713187   1.563   1.618   3.619 -0.9541  0.4719 -0.2784
   19PEO   H22813188   1.573   1.640   3.726 -0.7722 -1.6991  0.1994
   19PEO   H22913189   1.618   1.526   3.595 -2.3027  0.0925 -2.1307
   19PEO   O22A13190   1.611   1.727   3.546  0.5518 -0.2576  0.1950
   19PEO   H22B13191   1.807   1.657   3.534 -0.1014 -0.2958  0.1376
   19PEO   H22C13192   1.778   1.764   3.671  2.6395 -0.3961 -0.5682
   19PEO   C22D13193   1.747   1.743   3.568  0.2928  0.0441 -0.0239
   19PEO   C22E13194   1.804   1.867   3.500 -0.0038 -0.2872  0.8313
   19PEO   H22F13195   1.914   1.870   3.502 -0.0162  1.4506  0.4594
   19PEO   H23013196   1.772   1.868   3.395  0.6713  0.8865  0.6130
   19PEO   O23113197   1.773   1.988   3.577  0.1206 -0.0862 -0.2552
   19PEO   H23213198   1.646   2.056   3.431  0.6902  0.6517 -1.6695
   19PEO   H23313199   1.810   2.121   3.419  0.3962  0.0996 -0.5587
   19PEO   C23413200   1.731   2.092   3.491  0.1416  0.3998 -0.7119
   19PEO   C23513201   1.696   2.206   3.589  0.2088  0.4898 -0.2702
   19PEO   H23613202   1.664   2.299   3.540 -0.3228  1.5207  1.9107
   19PEO   H23713203   1.614   2.169   3.652  0.2131  1.2295  0.1784
   19PEO   O23813204   1.813   2.256   3.665  0.8562  0.3842 -0.2602
   19PEO   H23913205   1.762   2.297   3.873  1.3714 -1.7963  0.3448
   19PEO   H23A13206   1.715   2.418   3.743  0.1544 -0.2014 -0.0797
   19PEO   C23B13207   1.791   2.348   3.780 -0.3968 -0.5552  0.4143
   19PEO   C23C13208   1.922   2.428   3.815 -0.0479  0.6706 -0.0421
   19PEO   H23D13209   1.961   2.473   3.722 -2.8699 -0.4843 -1.9252
   19PEO   H23E13210   1.898   2.510   3.883 -0.4418 -0.8542  1.7453
   19PEO   O23F13211   2.023   2.345   3.871  0.3578 -0.4089 -0.4369
   19PEO   H24013212   2.022   2.362   4.063 -0.6690  1.6837  1.0464
   19PEO   H24113213   2.097   2.508   3.994  0.2337 -0.5315 -0.1615
   19PEO   C24213214   2.091   2.398   3.986 -0.8172 -0.4819 -0.1878
   19PEO   C24313215   2.230   2.343   4.015  0.4910  0.1523  0.1092
   19PEO   H24413216   2.250   2.338   4.123  2.1299 -1.8244 -0.2268
   19PEO   H24513217   2.238   2.254   3.951  1.6003  1.1025 -1.1581
   19PEO   O24613218   2.324   2.435   3.969  0.0322  0.0566 -0.6125
   19PEO   H24713219   2.513   2.463   3.934  0.6871 -0.6992 -0.5767
   19PEO   H24813220   2.477   2.304   4.009 -1.5603 -0.5221  0.0950
   19PEO   C24913221   2.450   2.410   4.006 -0.1452 -0.1562 -0.8941
   19PEO   C24A13222   2.473   2.470   4.147 -0.7745 -0.8079  0.4736
   19PEO   H24B13223   2.581   2.492   4.159 -0.8474 -1.7099  3.6539
   19PEO   H24C13224   2.423   2.567   4.162  1.2143  0.1001  1.6935
   19PEO   O24D13225   2.441   2.369   4.249  0.0220 -0.4060  0.1698
   19PEO   H24E13226   2.391   2.520   4.374 -1.1980 -0.0700 -0.7284
   19PEO   H24F13227   2.549   2.446   4.427 -0.9751  0.7116  2.2315
   19PEO   C25013228   2.447   2.427   4.389 -0.3778  0.6093  0.6066
   19PEO   C25113229   2.367   2.336   4.490  0.1700 -1.2081  0.4325
   19PEO   H25213230   2.348   2.391   4.584  0.9407 -1.4386  0.7309
   19PEO   H25313231   2.268   2.307   4.453 -1.7307  0.5987  3.5662
   19PEO   O25413232   2.451   2.223   4.509  0.3884 -0.6871 -0.3925
   19PEO   H25513233   2.453   2.015   4.495  2.0744  0.9289  1.5987
   19PEO   H25613234   2.338   2.109   4.391  0.6655 -1.0482 -0.7617
   19PEO   C25713235   2.384   2.100   4.491  0.5978 -0.2890 -0.6614
   19PEO   C25813236   2.274   2.071   4.597 -0.1541  1.4299  0.3160
   19PEO   H25913237   2.212   2.160   4.614 -2.3276 -0.3289  2.2898
   19PEO   H25A13238   2.204   1.996   4.555  1.1911  0.1695  0.2550
   19PEO   O25B13239   2.333   2.023   4.724  0.1310  0.2491  0.0346
   19PEO   H25C13240   2.160   2.105   4.824 -0.9413 -0.0669  0.4811
   19PEO   H25D13241   2.291   2.031   4.920  0.3752  0.6864 -0.1179
   19PEO   C25E13242   2.233   2.022   4.827 -0.5339  0.2861  0.4703
   19PEO   C25F13243   2.166   1.884   4.812  0.3931 -0.1383  0.5213
   19PEO   H26013244   2.244   1.807   4.816  0.3052 -0.3284 -1.0449
   19PEO   H26113245   2.107   1.864   4.903  0.1227 -1.7905  0.0151
   19PEO   O26213246   2.078   1.874   4.699  0.1330 -0.3568  0.2610
   19PEO   H26313247   1.997   1.680   4.695 -0.7116 -0.9503 -2.1382
   19PEO   H26413248   2.159   1.687   4.652 -0.5618  0.0509  0.3130
   19PEO   C26513249   2.068   1.748   4.644 -0.2594  0.5064  0.2528
   19PEO   C26613250   2.001   1.762   4.506 -0.3750  0.1685 -0.3368
   19PEO   H26713251   1.982   1.661   4.470 -0.1208  0.5098 -1.4694
   19PEO   H26813252   1.904   1.812   4.517  0.6726  2.0139  1.4049
   19PEO   O26913253   2.103   1.827   4.426  0.4854  0.8690 -0.6711
   19PEO   H26A13254   2.041   2.024   4.362 -0.6885  1.9011 -3.8435
   19PEO   H26B13255   1.939   1.892   4.310 -0.4738 -1.7132  0.8227
   19PEO   C26C13256   2.043   1.919   4.330 -0.9227  0.3615  0.5478
   19PEO   C26D13257   2.137   1.911   4.205  0.5433  0.3123 -0.1787
   19PEO   H26E13258   2.131   1.808   4.165  1.1682  0.3882 -0.4785
   19PEO   H26F13259   2.099   1.991   4.141 -0.8477  0.1394  0.3847
   19PEO   O27013260   2.268   1.951   4.236  0.3251  0.8370  0.3008
   19PEO   H27113261   2.313   2.016   4.042 -1.8401 -1.3685  0.7071
   19PEO   H27213262   2.370   1.854   4.097 -1.4287 -0.4597  0.0736
   19PEO   C27313263   2.360   1.960   4.124  0.4610 -0.2869  0.1936
   19PEO   C27413264   2.501   2.018   4.151 -0.0041  0.1732 -0.5194
   19PEO   H27513265   2.549   2.047   4.057  0.3230 -1.2186 -0.8116
   19PEO   H27613266   2.489   2.114   4.202  1.6294 -0.4580  1.1734
   19PEO   O27713267   2.589   1.939   4.239  0.0352 -0.0533 -0.0623
   19PEO   H27813268   2.756   1.823   4.254  1.0457  0.4050  0.5357
   19PEO   H27913269   2.754   1.939   4.109 -0.9126 -0.2266 -0.3223
   19PEO   C27A13270   2.696   1.877   4.179  0.2847 -0.4412  0.5230
   19PEO   C27B13271   2.635   1.766   4.094 -0.6927 -0.4484 -0.3530
   19PEO   H27C13272   2.699   1.676   4.098 -1.0586 -0.6842  0.1601
   19PEO   H27D13273   2.540   1.730   4.136 -1.2151  1.5347  0.2319
   19PEO   O27E13274   2.633   1.806   3.956  0.6907 -0.2674  0.7691
   19PEO   H27F13275   2.487   1.670   3.912 -0.9932 -0.4025 -1.7720
   19PEO   H28013276   2.657   1.626   3.866 -1.8252 -2.3241  4.5824
   19PEO   C28113277   2.581   1.706   3.868 -0.0189 -0.2093  0.3605
   19PEO   C28213278   2.555   1.754   3.721  0.2812 -0.2816  0.2651
   19PEO   H28313279   2.596   1.854   3.702  0.9744 -0.8211 -1.2762
   19PEO   H28413280   2.597   1.681   3.650  1.6601  0.8899 -0.1589
   19PEO   O28513281   2.414   1.763   3.722  0.0919 -0.1938  0.3528
   19PEO   H28613282   2.368   1.819   3.525  0.3573 -1.7421  0.3511
   19PEO   H28713283   2.435   1.953   3.631 -0.6534  0.9257 -1.8934
   19PEO   C28813284   2.374   1.862   3.626  0.9915 -0.3527 -0.2483
   19PEO   C28913285   2.226   1.888   3.663  0.0806  0.9433 -0.7598
   19PEO   H28A13286   2.176   1.946   3.584  0.3244 -0.9510 -2.3554
   19PEO   H28B13287   2.172   1.793   3.675  1.6973 -0.5441 -4.1459
   19PEO   O28C13288   2.221   1.966   3.787  0.2942 -0.3602 -0.1782
   19PEO   H28D13289   2.037   2.059   3.747 -2.7691 -2.2282 -0.5791
   19PEO   H28E13290   2.103   2.073   3.918  0.1796  0.5624 -0.6942
   19PEO   C28F13291   2.092   2.010   3.828  0.0697  0.5309 -0.6598
   19PEO   C29013292   2.008   1.883   3.860 -0.5217 -0.2682 -0.3807
   19PEO   H29113293   1.942   1.865   3.773 -3.1219 -1.2208  1.6363
   19PEO   H29213294   2.072   1.798   3.884 -1.3172 -0.2675  2.0195
   19PEO   O29313295   1.915   1.909   3.969  0.2515 -0.4407  0.0457
   19PEO   H29413296   1.773   2.045   3.873  0.3895 -0.2072  0.7286
   19PEO   H29513297   1.875   2.122   3.999  0.1417 -0.1784 -0.0576
   19PEO   C29613298   1.828   2.028   3.967  0.4454 -0.5723  0.6350
   19PEO   C29713299   1.712   1.985   4.064 -0.0312 -0.1288  0.9271
   19PEO   H29813300   1.624   2.048   4.043  0.0840 -0.3607 -0.3399
   19PEO   H29913301   1.677   1.888   4.026  0.5936  0.2387 -0.6439
   19PEO   O29A13302   1.749   1.989   4.203 -0.5044  0.8495  0.3344
   19PEO   H29B13303   1.568   1.899   4.244 -0.4003 -0.5136  1.4998
   19PEO   H29C13304   1.578   2.071   4.297 -0.7251 -0.1778  0.5194
   19PEO   C29D13305   1.634   1.977   4.286 -0.0666  0.3093 -0.4324
   19PEO   C29E13306   1.671   1.937   4.423 -0.4109  0.3491  1.0059
   19PEO   H29F13307   1.579   1.925   4.482 -0.8776 -2.3943 -0.0892
   19PEO   H2A013308   1.720   1.838   4.418  1.1887  1.1869 -0.4664
   19PEO   O2A113309   1.766   2.033   4.471 -0.7658 -0.2736  0.4171
   19PEO   H2A213310   1.768   1.969   4.668  0.1801 -0.0005  1.0084
   19PEO   H2A313311   1.690   2.123   4.636  0.4157  0.4592 -0.3397
   19PEO   C2A413312   1.776   2.061   4.609 -0.2173 -0.5919 -0.0092
   19PEO   C2A513313   1.905   2.137   4.654 -0.3508 -1.0544  0.6211
   19PEO   H2A613314   1.881   2.126   4.761 -3.1537 -0.3732  0.1376
   19PEO   H2A713315   2.004   2.091   4.639  0.6855  1.1990  0.1490
   19PEO   O2A813316   1.900   2.279   4.623  0.0144  0.9724  0.2729
   19PEO   H2A913317   1.881   2.249   4.417 -0.8634  2.5088 -1.4161
   19PEO   H2AA13318   2.048   2.267   4.475  1.0446  2.2319 -1.5556
   19PEO   C2AB13319   1.945   2.304   4.487  0.2416 -0.2289 -0.1500
   19PEO   C2AC13320   1.942   2.445   4.450  0.9098  0.2025 -0.8517
   19PEO   H2AD13321   1.941   2.439   4.341 -1.6787  0.3029 -0.8983
   19PEO   H2AE13322   1.852   2.498   4.485  1.6284  0.9609 -0.1094
   19PEO   O2AF13323   2.053   2.522   4.506  0.0225  0.1947 -0.4765
   19PEO   H2B013324   2.135   2.419   4.676 -0.4960 -1.2973 -2.2369
   19PEO   H2B113325   1.983   2.523   4.699 -1.8647 -0.2211 -3.6301
   19PEO   C2B213326   2.081   2.512   4.651  0.2411 -0.1171  0.2253
   19PEO   C2B313327   2.178   2.626   4.689 -0.7857 -0.3238  0.8507
   19PEO   H2B413328   2.130   2.714   4.644 -0.8460 -0.9010 -0.2557
   19PEO   H2B513329   2.202   2.641   4.795  1.1885 -0.7894  0.5162
   19PEO   O2B613330   2.307   2.620   4.628  0.3241  0.1889  0.4606
   19PEO   H2B713331   2.499   2.704   4.635 -0.9414 -2.1611  0.1698
   19PEO   H2B813332   2.395   2.736   4.776 -0.8127  1.6933  0.2957
   19PEO   C2B913333   2.396   2.728   4.666 -0.4032  0.1460  0.3834
   19PEO   C2BA13334   2.351   2.861   4.608  0.0484 -0.0802 -0.5338
   19PEO   H2BB13335   2.439   2.920   4.578 -0.2260  1.0529  0.7882
   19PEO   H2BC13336   2.290   2.846   4.518  2.0908 -0.2970 -1.9433
   19PEO   O2BD13337   2.274   2.932   4.707 -0.1184 -0.1573  0.4293
   19PEO   H2BE13338   2.338   2.968   4.771  0.6773  0.1177 -0.5064
   20PEO   H00113339   3.384   4.668   2.049  0.2399 -0.5005 -0.1355
   20PEO   H00213340   3.393   4.629   1.877  1.9615 -0.2389  0.8743
   20PEO   H00313341   3.499   4.759   1.947 -1.1505  2.4517  1.0714
   20PEO   C00413342   3.400   4.711   1.949 -0.3363  0.5918  0.2340
   20PEO   C00513343   3.277   4.806   1.924 -0.3270 -0.2851  0.2620
   20PEO   H00613344   3.264   4.883   2.001  1.2427 -2.0980  2.4714
   20PEO   H00713345   3.306   4.859   1.833  1.1386  0.6944  1.2581
   20PEO   O00813346   3.153   4.721   1.928 -0.0950 -0.4573  0.5080
   20PEO   H00913347   3.065   4.803   1.761  0.4317  1.4981  0.5716
   20PEO   H00A13348   3.006   4.867   1.912 -2.6363 -1.6914  0.8521
   20PEO   C00B13349   3.039   4.773   1.864  0.9366 -0.2804  0.2148
   20PEO   C00C13350   2.921   4.678   1.880  0.9895 -0.4300 -0.3831
   20PEO   H00D13351   2.850   4.684   1.797  2.0946  3.0589 -1.2686
   20PEO   H00E13352   2.949   4.572   1.884  0.3457 -0.6640 -1.6620
   20PEO   O00F13353   2.850   4.715   2.002  1.1186 -0.1907  0.4617
   20PEO   H01013354   2.795   4.528   2.070  1.0506  1.7870  0.1291
   20PEO   H01113355   2.672   4.617   1.954 -0.1865  0.2310 -0.4462
   20PEO   C01213356   2.742   4.620   2.039 -0.8335  0.7439  0.0838
   20PEO   C01313357   2.673   4.656   2.172  0.3651 -0.8079 -0.0949
   20PEO   H01413358   2.594   4.582   2.189  1.4027 -1.9617 -0.1669
   20PEO   H01513359   2.747   4.649   2.253  1.7122 -0.0549 -1.2128
   20PEO   O01613360   2.625   4.790   2.155  0.4097 -0.3856  0.1276
   20PEO   H01713361   2.525   4.949   2.246  0.3327  0.7342  1.1377
   20PEO   H01813362   2.636   4.861   2.354 -0.1968 -0.5045  0.4351
   20PEO   C01913363   2.567   4.850   2.270  0.0216  0.3492  0.1420
   20PEO   C01A13364   2.452   4.762   2.325 -0.3122 -0.7122  0.1824
   20PEO   H01B13365   2.491   4.662   2.349  0.1907 -0.5304  0.1405
   20PEO   H01C13366   2.422   4.803   2.423  0.3564 -0.9312  0.4851
   20PEO   O01D13367   2.347   4.746   2.231  0.5819 -0.8399  0.1380
   20PEO   H01E13368   2.212   4.698   2.380 -0.0040 -0.2328  0.8193
   20PEO   H01F13369   2.297   4.564   2.309  0.3729  0.7283  2.9680
   20PEO   C02013370   2.250   4.660   2.284  0.0644  0.0483  0.7309
   20PEO   C02113371   2.128   4.634   2.182 -0.0805  0.0468  0.1126
   20PEO   H02213372   2.167   4.595   2.087 -2.8112  0.1741 -1.1425
   20PEO   H02313373   2.058   4.558   2.219  1.6182 -0.8235  1.6943
   20PEO   O02413374   2.056   4.757   2.177 -0.2138  0.3692  0.8633
   20PEO   H02513375   1.854   4.720   2.215  1.5598 -0.5293  1.4042
   20PEO   H02613376   1.899   4.713   2.039 -0.1353  1.2061 -1.2618
   20PEO   C02713377   1.914   4.765   2.135 -1.2342  0.1195 -0.4754
   20PEO   C02813378   1.867   4.913   2.127  0.0918  0.0700 -0.3741
   20PEO   H02913379   1.935   4.961   2.056 -1.2508  0.1569 -1.6458
   20PEO   H02A13380   1.764   4.920   2.088 -0.3847  2.4465  1.0619
   20PEO   O02B13381   1.874   4.972   2.257  0.3908 -0.5630  0.5015
   20PEO   H02C13382   1.721   5.114   2.239  0.1866 -2.8186 -4.4057
   20PEO   H02D13383   1.882   5.148   2.162  1.3442 -0.0726  0.4811
   20PEO   C02E13384   1.830   5.109   2.250  0.1062 -0.0363 -0.2008
   20PEO   C02F13385   1.888   5.196   2.362 -0.8974 -0.2226 -0.7453
   20PEO   H03013386   1.994   5.218   2.342 -0.3786  0.3746  2.2361
   20PEO   H03113387   1.841   5.295   2.369  1.5267  0.8944  1.4048
   20PEO   O03213388   1.886   5.135   2.494 -0.2693  0.0587 -0.5641
   20PEO   H03313389   1.896   5.317   2.593 -1.2774 -1.5031  0.1331
   20PEO   H03413390   2.055   5.250   2.545 -0.0331 -0.3907  0.3639
   20PEO   C03513391   1.957   5.226   2.588  0.0926 -0.6460  0.5055
   20PEO   C03613392   1.979   5.152   2.726 -0.5380 -1.0020 -0.5009
   20PEO   H03713393   2.006   5.215   2.812 -2.3945  1.2437 -1.4686
   20PEO   H03813394   1.878   5.114   2.747 -0.7977  0.9005  2.1369
   20PEO   O03913395   2.071   5.048   2.710 -0.6423  0.4912  0.3218
   20PEO   H03A13396   1.961   4.922   2.576 -1.6132 -1.6421  0.7167
   20PEO   H03B13397   1.965   4.868   2.742 -1.4496 -0.6102 -1.2874
   20PEO   C03C13398   2.024   4.920   2.666 -0.3360 -0.0733 -0.0955
   20PEO   C03D13399   2.141   4.839   2.628  0.7529  0.2547 -0.6729
   20PEO   H03E13400   2.107   4.744   2.584  0.8239  1.2387 -2.9849
   20PEO   H03F13401   2.206   4.893   2.557  0.6551  0.1423 -0.8470
   20PEO   O04013402   2.202   4.819   2.755  0.2307  0.0333  0.3556
   20PEO   H04113403   2.402   4.812   2.682 -0.6226 -1.2519 -2.2308
   20PEO   H04213404   2.313   4.655   2.690 -2.4469  0.3673 -1.2451
   20PEO   C04313405   2.335   4.749   2.742  0.1847 -0.5486 -0.5138
   20PEO   C04413406   2.377   4.721   2.885 -0.0430  0.2486 -0.3546
   20PEO   H04513407   2.462   4.653   2.873 -1.0466 -1.0180 -0.5396
   20PEO   H04613408   2.417   4.811   2.934  0.6971  0.5272 -1.4326
   20PEO   O04713409   2.271   4.648   2.968  0.3937  0.7499 -0.3167
   20PEO   H04813410   2.306   4.466   2.894 -1.0520 -1.4411  0.4140
   20PEO   H04913411   2.160   4.554   2.834  0.4296 -0.4153 -1.0887
   20PEO   C04A13412   2.219   4.527   2.922 -0.2965  0.0662 -0.4389
   20PEO   C04B13413   2.131   4.457   3.024  0.1711  0.0151  0.7978
   20PEO   H04C13414   2.143   4.348   3.026  2.3207  0.2034  1.1032
   20PEO   H04D13415   2.151   4.502   3.123 -1.1018  0.9393  0.6590
   20PEO   O04E13416   2.001   4.490   2.980 -0.1287 -0.2939  0.3930
   20PEO   H04F13417   1.909   4.488   3.159  0.2578  3.1201 -2.3199
   20PEO   H05013418   1.914   4.322   3.073  0.0437  0.1441 -1.4301
   20PEO   C05113419   1.903   4.431   3.065 -0.0522  0.2011 -0.6528
   20PEO   C05213420   1.765   4.466   3.000 -0.1600  0.5641 -0.3106
   20PEO   H05313421   1.754   4.409   2.907  1.5760 -2.0519  0.9850
   20PEO   H05413422   1.686   4.440   3.072 -0.1290 -1.2357 -0.8948
   20PEO   O05513423   1.754   4.604   2.968  0.0620  0.1327  1.1438
   20PEO   H05613424   1.552   4.615   2.974 -0.5942 -3.6791 -1.7855
   20PEO   H05713425   1.624   4.571   2.817  0.1624  0.1388 -0.1856
   20PEO   C05813426   1.630   4.643   2.901  0.2155 -0.2577  0.1504
   20PEO   C05913427   1.629   4.787   2.849 -0.3760  0.1482 -0.1062
   20PEO   H05A13428   1.729   4.830   2.834 -1.1060  1.0731 -2.8625
   20PEO   H05B13429   1.572   4.802   2.757 -1.4491 -0.3322  0.4620
   20PEO   O05C13430   1.564   4.857   2.956 -0.1408  0.3671 -0.7430
   20PEO   H05D13431   1.509   5.027   2.850  0.1938 -2.0943 -0.8180
   20PEO   H05E13432   1.663   5.027   2.937  0.2210 -0.5022  0.7264
   20PEO   C05F13433   1.558   4.995   2.943  0.0363 -0.0592  0.0041
   20PEO   C06013434   1.479   5.062   3.059  0.6987 -0.0123 -0.7162
   20PEO   H06113435   1.480   4.991   3.142 -0.3983  0.4364 -0.2990
   20PEO   H06213436   1.522   5.157   3.096  3.6545 -1.9042  1.1839
   20PEO   O06313437   1.346   5.077   3.016 -0.0193  0.4291  0.1520
   20PEO   H06413438   1.285   4.904   3.125 -1.2754 -0.5502 -0.6662
   20PEO   H06513439   1.282   4.876   2.953  1.1177  1.4831 -1.7968
   20PEO   C06613440   1.265   4.954   3.029 -0.2412  0.0631 -0.5716
   20PEO   C06713441   1.118   5.005   3.025 -0.4649  0.6881 -0.4221
   20PEO   H06813442   1.056   4.928   3.072  1.1100  0.4489  1.3873
   20PEO   H06913443   1.109   5.095   3.088 -1.2511  1.5632 -1.7224
   20PEO   O06A13444   1.084   5.021   2.889 -0.2907  0.7845 -0.0595
   20PEO   H06B13445   1.084   5.233   2.905  1.4721  0.1761 -0.7403
   20PEO   H06C13446   0.986   5.175   2.780 -0.4891 -0.7683  2.1631
   20PEO   C06D13447   1.084   5.155   2.827  1.0591  0.0002 -0.5710
   20PEO   C06E13448   1.213   5.176   2.740 -0.3586 -0.2914  0.1015
   20PEO   H06F13449   1.224   5.283   2.717  0.5407 -0.5531 -0.7466
   20PEO   H07013450   1.301   5.150   2.800  0.0890  0.4868 -0.2117
   20PEO   O07113451   1.205   5.101   2.616 -0.5257  0.3539 -0.7796
   20PEO   H07213452   1.148   4.908   2.688  0.3784 -2.8308 -0.8429
   20PEO   H07313453   1.314   4.945   2.697  0.2334  1.6027 -0.4259
   20PEO   C07413454   1.227   4.959   2.631 -0.5954  0.1812  0.3144
   20PEO   C07513455   1.248   4.897   2.490 -0.3578  1.5145 -0.4085
   20PEO   H07613456   1.183   4.809   2.480 -0.3108  1.3528  0.5871
   20PEO   H07713457   1.219   4.977   2.421 -2.8692  0.6646 -0.4584
   20PEO   O07813458   1.386   4.869   2.481 -0.5172 -0.0160 -0.0614
   20PEO   H07913459   1.393   4.867   2.270 -0.4897  0.2059  0.0086
   20PEO   H07A13460   1.380   4.712   2.343 -1.9867  1.2828 -0.3129
   20PEO   C07B13461   1.427   4.811   2.358 -0.4383  0.4988  0.1768
   20PEO   C07C13462   1.576   4.811   2.352 -0.5149  0.5959 -0.1132
   20PEO   H07D13463   1.599   4.779   2.249  0.1082  0.9466 -0.0882
   20PEO   H07E13464   1.620   4.911   2.367 -3.9990  2.2293  0.1208
   20PEO   O07F13465   1.630   4.710   2.444  0.2302  0.1734 -0.8119
   20PEO   H08013466   1.750   4.857   2.543  1.4562  0.6474 -1.9169
   20PEO   H08113467   1.832   4.757   2.423  2.1483 -0.2095  1.9155
   20PEO   C08213468   1.752   4.756   2.500 -0.2833 -0.0679 -0.4709
   20PEO   C08313469   1.790   4.651   2.608 -0.8161 -0.2024 -0.7085
   20PEO   H08413470   1.839   4.691   2.698 -0.7002 -1.0099 -0.4133
   20PEO   H08513471   1.704   4.585   2.624  1.5041 -3.5312 -0.9160
   20PEO   O08613472   1.869   4.552   2.538 -0.0261 -0.0419  0.2478
   20PEO   H08713473   1.927   4.471   2.717 -2.6126  0.9490 -0.0311
   20PEO   H08813474   2.043   4.576   2.647 -1.5301  0.2509  1.5398
   20PEO   C08913475   1.972   4.497   2.620 -0.5586 -0.3109  0.5154
   20PEO   C08A13476   2.030   4.375   2.534  0.2268  0.7886 -0.4268
   20PEO   H08B13477   2.045   4.294   2.607  2.6461  1.2233 -0.3647
   20PEO   H08C13478   1.955   4.344   2.460  0.5507 -0.3950 -0.2827
   20PEO   O08D13479   2.165   4.390   2.482 -0.0225 -0.3322  0.5180
   20PEO   H08E13480   2.157   4.217   2.355  3.7337 -1.7743 -1.8817
   20PEO   H08F13481   2.233   4.202   2.516 -0.8101  0.0683  0.8233
   20PEO   C09013482   2.218   4.269   2.431  0.7715 -0.6665 -0.0745
   20PEO   C09113483   2.351   4.307   2.359 -0.3300  0.1582 -0.9410
   20PEO   H09213484   2.399   4.402   2.388  0.6240 -0.0158 -1.9139
   20PEO   H09313485   2.419   4.222   2.368  0.0502  0.0823 -3.7926
   20PEO   O09413486   2.322   4.325   2.216 -0.9048  0.2232  0.1378
   20PEO   H09513487   2.530   4.350   2.199  0.8527  4.7276  0.4475
   20PEO   H09613488   2.438   4.471   2.116 -0.4151  0.2554  1.4309
   20PEO   C09713489   2.435   4.365   2.146  0.1722 -0.2820 -0.2740
   20PEO   C09813490   2.435   4.296   2.011 -0.5849 -0.6134 -0.5119
   20PEO   H09913491   2.338   4.326   1.970 -2.0004  0.6062  3.2950
   20PEO   H09A13492   2.524   4.342   1.965  0.0792  0.1225  1.4120
   20PEO   O09B13493   2.450   4.155   2.031 -1.1395  0.2945 -0.1700
   20PEO   H09C13494   2.474   4.160   1.826  0.1432  0.3554  0.0570
   20PEO   H09D13495   2.341   4.065   1.875 -0.3280  0.5064  1.1481
   20PEO   C09E13496   2.446   4.086   1.902  0.2044 -0.0722 -0.3285
   20PEO   C09F13497   2.551   3.971   1.901 -0.0329  0.4811  0.9173
   20PEO   H0A013498   2.551   3.905   1.989 -0.5829  1.4816  1.6980
   20PEO   H0A113499   2.529   3.903   1.817  2.7384  0.6593 -0.0823
   20PEO   O0A213500   2.682   4.020   1.882  0.2817  0.2285 -0.0201
   20PEO   H0A313501   2.864   3.979   1.808  1.6004 -0.4498  1.0564
   20PEO   H0A413502   2.755   3.834   1.799  0.8071 -0.1864 -1.0976
   20PEO   C0A513503   2.783   3.923   1.858  0.4534 -0.3669 -0.6494
   20PEO   C0A613504   2.817   3.866   1.998  0.5467 -0.6446  0.5357
   20PEO   H0A713505   2.749   3.893   2.080  2.2629 -2.1487  2.5836
   20PEO   H0A813506   2.832   3.757   1.986 -1.3086 -0.7751 -1.0622
   20PEO   O0A913507   2.946   3.921   2.041  0.6133 -0.4232 -0.0780
   20PEO   H0AA13508   3.073   3.759   1.969  0.8156  1.3798 -0.7230
   20PEO   H0AB13509   3.009   3.757   2.142 -0.8479  0.0789 -0.2145
   20PEO   C0AC13510   3.050   3.818   2.060  0.6446 -0.1987  0.2904
   20PEO   C0AD13511   3.184   3.879   2.087  0.5528 -0.0147  0.3580
   20PEO   H0AE13512   3.263   3.805   2.065 -1.7402 -2.1362 -1.2138
   20PEO   H0AF13513   3.196   3.966   2.021 -1.0989  0.7862  1.0593
   20PEO   O0B013514   3.193   3.922   2.225  0.1043  0.3086 -0.3674
   20PEO   H0B113515   3.023   4.041   2.208  0.2939  0.4655 -0.0855
   20PEO   H0B213516   3.172   4.128   2.213 -0.6493  0.1255 -1.2484
   20PEO   C0B313517   3.120   4.043   2.259  0.0667  0.5260  0.3449
   20PEO   C0B413518   3.105   4.052   2.418 -0.4540 -0.3234  0.3769
   20PEO   H0B513519   3.187   3.999   2.469 -0.1941 -1.3014 -1.0110
   20PEO   H0B613520   3.113   4.158   2.444 -1.1438 -0.1530 -0.0847
   20PEO   O0B713521   2.976   4.006   2.454  0.2012 -0.1359 -0.1778
   20PEO   H0B813522   2.991   3.802   2.496 -0.2887  1.8641  1.1862
   20PEO   H0B913523   2.945   3.855   2.320 -0.3630  1.8338 -0.4805
   20PEO   C0BA13524   2.938   3.870   2.428  0.1411  0.7966 -0.2850
   20PEO   C0BB13525   2.786   3.853   2.463  0.0398 -0.6225  0.9809
   20PEO   H0BC13526   2.759   3.748   2.443  1.0151 -0.6304 -0.4458
   20PEO   H0BD13527   2.759   3.886   2.564  1.6357  0.8879  0.9584
   20PEO   O0BE13528   2.706   3.936   2.368  0.3617 -0.3582 -0.4465
   20PEO   H0BF13529   2.535   4.010   2.290 -2.3158  1.0737  1.3505
   20PEO   H0C013530   2.546   4.045   2.455  1.0403  2.6905 -1.4435
   20PEO   C0C113531   2.568   3.964   2.384  0.5635  0.8852  0.3429
   20PEO   C0C213532   2.476   3.841   2.416  0.3357  0.3389 -1.1987
   20PEO   H0C313533   2.374   3.861   2.379 -0.0309  0.4976 -0.1401
   20PEO   H0C413534   2.516   3.743   2.388  0.8655  0.8489 -2.3007
   20PEO   O0C513535   2.471   3.840   2.571  0.5528  0.4040  0.7343
   20PEO   H0C613536   2.421   3.632   2.605  3.1156  1.0971 -1.3195
   20PEO   H0C713537   2.286   3.737   2.586 -1.0483  0.0695  1.6663
   20PEO   C0C813538   2.390   3.735   2.624 -0.4539 -0.0931  0.1109
   20PEO   C0C913539   2.390   3.762   2.778 -0.9638  0.1198 -0.5453
   20PEO   H0CA13540   2.371   3.665   2.826  1.5677  1.7462  4.4507
   20PEO   H0CB13541   2.479   3.797   2.833 -2.1003 -0.1166  1.5489
   20PEO   O0CC13542   2.283   3.854   2.802 -0.0196 -0.1201  0.4688
   20PEO   H0CD13543   2.347   3.846   2.997  1.2618  1.7249 -1.6348
   20PEO   H0CE13544   2.176   3.800   2.968  1.1478 -0.2105  1.2778
   20PEO   C0CF13545   2.256   3.870   2.940 -0.1182  0.8477  0.1196
   20PEO   C0D013546   2.223   4.020   2.966  0.6860 -0.2253 -0.0609
   20PEO   H0D113547   2.128   4.044   2.915  0.8275  1.3379  0.3636
   20PEO   H0D213548   2.206   4.029   3.074 -1.1866 -0.8858 -0.2617
   20PEO   O0D313549   2.324   4.114   2.915 -0.4085 -0.4159 -0.2817
   20PEO   H0D413550   2.256   4.254   2.771  2.9598  1.9659 -1.3732
   20PEO   H0D513551   2.264   4.082   2.726 -1.2516  0.4287  1.8396
   20PEO   C0D613552   2.313   4.161   2.785  0.6459  0.6596  0.0512
   20PEO   C0D713553   2.453   4.196   2.739 -0.5920 -0.2062  0.2312
   20PEO   H0D813554   2.520   4.121   2.786  0.9938  1.2614  0.3911
   20PEO   H0D913555   2.459   4.194   2.630  0.5897  0.8283  0.2564
   20PEO   O0DA13556   2.488   4.331   2.778  0.5343 -0.4535 -0.4687
   20PEO   H0DB13557   2.693   4.314   2.722  2.8422  2.6342 -1.9671
   20PEO   H0DC13558   2.635   4.468   2.792  1.1688 -2.6317  1.8806
   20PEO   C0DD13559   2.609   4.385   2.726 -0.0028 -0.5624 -0.4318
   20PEO   C0DE13560   2.580   4.439   2.589 -0.1221 -0.5690  0.0016
   20PEO   H0DF13561   2.471   4.433   2.573 -0.5269 -1.2311  2.5212
   20PEO   H0E013562   2.611   4.544   2.575 -0.0959 -0.9159 -3.0671
   20PEO   O0E113563   2.648   4.372   2.486 -0.1637  0.5458  0.0634
   20PEO   H0E213564   2.845   4.420   2.551  0.6184 -0.7602 -0.1118
   20PEO   H0E313565   2.776   4.518   2.412  0.6941 -1.2517 -0.9391
   20PEO   C0E413566   2.785   4.419   2.459 -0.0973 -0.7412  0.3396
   20PEO   C0E513567   2.846   4.327   2.340  0.7530 -0.0894 -0.4944
   20PEO   H0E613568   2.955   4.329   2.336  0.7229 -0.2931 -1.5223
   20PEO   H0E713569   2.812   4.226   2.366 -1.2323  0.7801  0.5874
   20PEO   O0E813570   2.784   4.358   2.210 -0.3028  0.1130  0.5549
   20PEO   H0E913571   2.669   4.226   2.081 -0.4062 -0.4264  1.8028
   20PEO   H0EA13572   2.788   4.141   2.173  0.4757  0.3619  0.4113
   20PEO   C0EB13573   2.771   4.236   2.121  0.4932 -0.0658 -0.3969
   20PEO   C0EC13574   2.870   4.253   2.006  0.0085  0.3228  0.1118
   20PEO   H0ED13575   2.869   4.159   1.950  1.2246 -0.8387  1.9528
   20PEO   H0EE13576   2.843   4.341   1.946 -0.6251 -0.5377 -0.9092
   20PEO   O0EF13577   3.003   4.262   2.058 -0.0087  0.5241 -0.1472
   20PEO   H0F013578   3.047   4.463   2.065 -2.9706 -1.3122  0.4347
   20PEO   H0F113579   3.074   4.390   1.895 -0.1035 -0.9196  0.7290
   20PEO   C0F213580   3.070   4.375   2.004 -0.1669 -0.8623  0.7354
   20PEO   C0F313581   3.216   4.353   2.047 -0.2603  0.7782  0.4871
   20PEO   H0F413582   3.278   4.441   2.021  1.3143 -0.6844 -0.9772
   20PEO   H0F513583   3.214   4.336   2.156  0.0591  0.7532  0.4919
   20PEO   O0F613584   3.270   4.237   1.981  0.2380  0.0762 -0.0997
   20PEO   H0F713585   3.417   4.095   2.001 -2.3197 -0.6562  1.0310
   20PEO   H0F813586   3.377   4.201   2.146  0.1442  2.0576  0.4247
   20PEO   C0F913587   3.394   4.196   2.038 -0.1566  0.1140  0.4221
   20PEO   C0FA13588   3.517   4.289   2.004 -0.4472 -0.6002  0.2159
   20PEO   H0FB13589   3.607   4.227   1.990 -0.4874 -0.1405 -2.6711
   20PEO   H0FC13590   3.503   4.340   1.907  4.4751  1.8720  0.5030
   20PEO   O0FD13591   3.537   4.389   2.104 -0.3634 -0.6993  0.2541
   20PEO   H0FE13592   3.658   4.517   1.985  0.5239 -0.2186 -0.1863
   20PEO   H0FF13593   3.742   4.403   2.090  0.4622  0.2908  2.4780
   20PEO   C10013594   3.652   4.466   2.083  0.2240 -0.2608 -0.2253
   20PEO   C10113595   3.667   4.556   2.203  0.5858 -0.7571  0.6782
   20PEO   H10213596   3.678   4.503   2.299  2.3376 -0.0909  0.8954
   20PEO   H10313597   3.767   4.603   2.206  0.7190 -1.0859  2.2428
   20PEO   O10413598   3.570   4.666   2.207 -0.4169  0.3227  0.2987
   20PEO   H10513599   3.697   4.780   2.304  2.0061 -4.5135  2.9401
   20PEO   H10613600   3.567   4.724   2.412  0.4680  2.3144 -0.2721
   20PEO   C10713601   3.589   4.764   2.312  0.4744  0.9855 -0.8248
   20PEO   C10813602   3.508   4.890   2.285  0.0809  0.4921  0.8319
   20PEO   H10913603   3.402   4.868   2.270  0.9547 -2.9983 -1.7058
   20PEO   H10A13604   3.531   4.960   2.366  1.4760  1.8282 -0.6532
   20PEO   O10B13605   3.576   4.941   2.166 -0.2185  0.2815  0.3881
   20PEO   H10C13606   3.524   5.137   2.205  1.6040  1.1650 -0.1974
   20PEO   H10D13607   3.413   5.057   2.100 -0.6000  1.4337  0.8998
   20PEO   C10E13608   3.520   5.063   2.123 -0.4546  0.3176  0.5878
   20PEO   C10F13609   3.595   5.092   1.997  0.5126 -0.2337 -0.2475
   20PEO   H11013610   3.577   5.196   1.969 -0.3762  0.3527  2.2888
   20PEO   H11113611   3.704   5.088   2.012  0.5736 -1.3725 -0.8893
   20PEO   O11213612   3.574   4.998   1.883  0.3256  0.0647 -0.2466
   20PEO   H11313613   3.758   5.013   1.778 -0.5316 -0.2933 -1.3855
   20PEO   H11413614   3.637   5.144   1.746 -2.6106 -0.5391 -0.7814
   20PEO   C11513615   3.651   5.037   1.768 -0.6624 -0.1224  0.2091
   20PEO   C11613616   3.603   4.940   1.654  0.0912 -0.0573 -0.4748
   20PEO   H11713617   3.672   4.935   1.568  0.3425  3.4329 -0.6141
   20PEO   H11813618   3.600   4.842   1.703 -1.9685  0.2782  0.1781
   20PEO   O11913619   3.466   4.977   1.614 -0.6435 -0.9567  0.0760
   20PEO   H11A13620   3.414   4.787   1.569  2.5123  0.0867  0.7770
   20PEO   H11B13621   3.483   4.862   1.432  1.4860 -1.4051  1.8180
   20PEO   C11C13622   3.416   4.883   1.516 -0.9017 -0.2941 -0.2450
   20PEO   C11D13623   3.275   4.940   1.480 -1.0914  0.2461  0.1637
   20PEO   H11E13624   3.203   4.862   1.452 -0.2204 -0.2196 -0.8561
   20PEO   H11F13625   3.231   4.993   1.566  0.1969 -0.3575  1.2474
   20PEO   O12013626   3.278   5.038   1.377 -0.7437  0.0899  0.8719
   20PEO   H12113627   3.433   5.170   1.454  0.0426 -3.5684 -0.3938
   20PEO   H12213628   3.270   5.233   1.481  1.9018 -2.1983  2.9514
   20PEO   C12313629   3.333   5.178   1.409  0.1618 -0.2786 -0.2771
   20PEO   C12413630   3.337   5.246   1.272 -0.2499  0.0350  0.1906
   20PEO   H12513631   3.387   5.343   1.287  0.4512 -0.2054 -0.5033
   20PEO   H12613632   3.409   5.190   1.210  1.1485 -0.5301  2.2195
   20PEO   O12713633   3.208   5.264   1.206 -0.0137 -0.1078  0.2329
   20PEO   H12813634   3.097   5.097   1.215 -0.7208 -0.3447 -0.0300
   20PEO   H12913635   3.229   5.103   1.095 -1.2566 -0.3647 -0.6556
   20PEO   C12A13636   3.149   5.161   1.143  0.2208  0.2788  1.1627
   20PEO   C12B13637   3.032   5.206   1.040  0.0695  0.4079  0.1380
   20PEO   H12C13638   2.988   5.118   0.992  0.6950  1.3802 -2.4012
   20PEO   H12D13639   2.956   5.263   1.096 -1.9804  0.8756 -2.9242
   20PEO   O12E13640   3.074   5.293   0.935  0.1471  0.4739 -0.0889
   20PEO   H12F13641   2.905   5.381   0.850 -1.7465 -1.3246  0.6053
   20PEO   H13013642   2.938   5.209   0.807 -0.0107  1.4557 -0.4067
   20PEO   C13113643   2.983   5.306   0.827  0.5787  1.0223  0.4130
   20PEO   C13213644   3.059   5.355   0.703  0.1907 -0.0926  0.0311
   20PEO   H13313645   2.999   5.367   0.611 -0.9872  0.6312  0.8675
   20PEO   H13413646   3.109   5.448   0.733  1.6763 -0.7615 -0.2793
   20PEO   O13513647   3.160   5.259   0.667 -0.0879 -0.6285 -0.8126
   20PEO   H13613648   3.090   5.142   0.514  2.1913 -1.1745 -1.6667
   20PEO   H13713649   3.033   5.087   0.671 -1.5640  1.6463 -0.5023
   20PEO   C13813650   3.121   5.126   0.619 -0.9794  0.6359 -0.2892
   20PEO   C13913651   3.242   5.030   0.615  1.0941  1.1085 -0.1107
   20PEO   H13A13652   3.312   5.040   0.699  3.1695  1.0929 -1.7352
   20PEO   H13B13653   3.216   4.924   0.606 -0.3308  1.3951  0.3697
   20PEO   O13C13654   3.310   5.071   0.502 -0.5093 -0.4547  0.4180
   20PEO   H13D13655   3.441   4.912   0.433 -0.3560  0.7524 -0.4949
   20PEO   H13E13656   3.503   5.006   0.574  1.0232 -1.8092  0.5260
   20PEO   C13F13657   3.447   5.011   0.480  1.0698  0.2015  0.5625
   20PEO   C14013658   3.517   5.098   0.377 -0.2521  0.2483  0.2048
   20PEO   H14113659   3.465   5.194   0.368  0.9804  0.9092 -0.1917
   20PEO   H14213660   3.622   5.118   0.405 -0.1436 -0.5531  0.4098
   20PEO   O14313661   3.505   5.027   0.254 -0.6489  0.7725  0.8898
   20PEO   H14413662   3.630   5.185   0.194  1.7605 -0.8719  0.0763
   20PEO   H14513663   3.528   5.131   0.076 -0.7357  0.4294  1.5736
   20PEO   C14613664   3.589   5.090   0.159  0.4155 -0.4065  0.3563
   20PEO   C14713665   3.706   4.996   0.116 -0.6322 -0.9499 -0.7460
   20PEO   H14813666   3.667   4.893   0.110  0.3252 -1.5464  1.8406
   20PEO   H14913667   3.761   5.021   0.024  2.4493 -1.9966  0.6892
   20PEO   O14A13668   3.804   5.006   0.217  0.4832  0.1271 -0.5959
   20PEO   H14B13669   3.839   4.803   0.199  2.1388 -1.8846 -1.2508
   20PEO   H14C13670   3.954   4.886   0.303 -0.0428  3.1754  0.3589
   20PEO   C14D13671   3.896   4.896   0.210 -0.0656 -0.5769 -0.2132
   20PEO   C14E13672   3.998   4.906   0.090 -0.5860  0.3683 -0.8579
   20PEO   H14F13673   4.075   4.827   0.084 -0.4138 -0.1558  3.8589
   20PEO   H15013674   3.941   4.891  -0.002  0.6370 -0.5645 -1.4905
   20PEO   O15113675   4.063   5.029   0.112 -0.2322 -0.7165  0.8185
   20PEO   H15213676   4.047   5.176  -0.040  0.2241  0.0637 -1.0097
   20PEO   H15313677   4.139   5.022  -0.078 -0.3744 -0.8878  0.5747
   20PEO   C15413678   4.117   5.099  -0.002  0.0571  0.2092 -0.3892
   20PEO   C15513679   4.255   5.161   0.042  0.3696 -0.0708 -0.1187
   20PEO   H15613680   4.311   5.097   0.112  0.6064 -0.7334 -0.9039
   20PEO   H15713681   4.315   5.181  -0.048  0.7063 -0.1901  0.0795
   20PEO   O15813682   4.231   5.294   0.110  0.4790 -0.3095  0.5096
   20PEO   H15913683   4.138   5.351  -0.068  0.5363  1.5414 -1.3772
   20PEO   H15A13684   4.288   5.422  -0.025 -0.8479 -0.0639 -1.1285
   20PEO   C15B13685   4.193   5.390   0.019 -0.3235 -0.1201 -0.0018
   20PEO   C15C13686   4.123   5.505   0.100 -0.4587 -0.7426 -0.6681
   20PEO   H15D13687   4.188   5.531   0.185 -0.5432  1.1826 -1.1463
   20PEO   H15E13688   4.123   5.596   0.038 -1.0352  1.0523  1.8005
   20PEO   O15F13689   3.995   5.459   0.142 -0.6257 -0.7256  0.1754
   20PEO   H16013690   3.993   5.531   0.338 -0.4680 -0.4322  0.8403
   20PEO   H16113691   4.087   5.392   0.315  1.7464  4.0757  0.5716
   20PEO   C16213692   3.991   5.435   0.284 -0.2731 -0.1358  0.3052
   20PEO   C16313693   3.866   5.346   0.323  0.5653 -0.0050  0.3582
   20PEO   H16413694   3.844   5.268   0.249  0.2239  0.3152  0.1172
   20PEO   H16513695   3.900   5.295   0.414  2.2364 -2.2775 -1.4198
   20PEO   O16613696   3.754   5.426   0.359  0.0957 -0.3750 -0.0349
   20PEO   H16713697   3.652   5.407   0.179  0.0637  0.3565 -0.9449
   20PEO   H16813698   3.751   5.546   0.181 -1.0558 -0.2251 -0.0146
   20PEO   C16913699   3.684   5.488   0.246 -0.3509 -0.5656  0.4210
   20PEO   C16A13700   3.561   5.567   0.289  0.1045 -0.3913  0.7489
   20PEO   H16B13701   3.513   5.609   0.200 -1.0605 -1.9602  0.6011
   20PEO   H16C13702   3.492   5.494   0.334  0.9365 -1.3886  0.4527
   20PEO   O16D13703   3.611   5.678   0.368  0.6240  0.2644 -0.0856
   20PEO   H16E13704   3.465   5.674   0.524  0.0130 -0.4293 -0.4852
   20PEO   H16F13705   3.430   5.773   0.378 -0.0812  1.7037  0.6697
   20PEO   C17013706   3.509   5.736   0.444 -0.0557 -0.2761 -0.4057
   20PEO   C17113707   3.558   5.870   0.510 -0.0979  0.0691 -0.0578
   20PEO   H17213708   3.497   5.891   0.599  1.0318 -0.8130  0.9632
   20PEO   H17313709   3.660   5.839   0.536  0.0867 -1.0146 -1.9181
   20PEO   O17413710   3.555   5.974   0.413 -0.4145 -0.7829  0.6275
   20PEO   H17513711   3.495   6.125   0.550  0.1456  0.9821 -0.8338
   20PEO   H17613712   3.506   6.179   0.382 -1.1562  0.3819  0.1178
   20PEO   C17713713   3.553   6.114   0.457 -0.0195  0.0577 -0.8335
   20PEO   C17813714   3.698   6.156   0.490  0.0791 -0.0601  0.7236
   20PEO   H17913715   3.770   6.103   0.426  2.1230  2.1502  1.0224
   20PEO   H17A13716   3.692   6.266   0.486 -2.1726 -0.1335  0.4613
   20PEO   O17B13717   3.719   6.113   0.624 -0.3078  0.0944 -0.1345
   20PEO   H17C13718   3.852   6.103   0.773 -1.0177 -0.6307  0.4655
   20PEO   H17D13719   3.911   6.194   0.633  0.7037 -0.2043  1.5117
   20PEO   C17E13720   3.854   6.106   0.663  0.5494 -0.4808  0.4704
   20PEO   C17F13721   3.924   5.981   0.614 -0.2536 -0.0579 -0.0555
   20PEO   H18013722   3.930   5.977   0.505 -1.8985 -0.0679 -0.1656
   20PEO   H18113723   4.023   6.000   0.657 -1.0992  4.5544  0.3660
   20PEO   O18213724   3.869   5.856   0.653  0.3383 -0.2654 -0.1931
   20PEO   H18313725   3.889   5.771   0.461 -1.6611  1.2730  1.1844
   20PEO   H18413726   3.844   5.654   0.585  0.3495 -0.4272 -0.5407
   20PEO   C18513727   3.904   5.745   0.567 -0.3420  0.3192  0.7875
   20PEO   C18613728   4.057   5.699   0.592 -0.9117 -0.1799 -0.3769
   20PEO   H18713729   4.102   5.661   0.499 -1.2040 -1.3695 -0.0426
   20PEO   H18813730   4.121   5.781   0.626 -1.4807  0.4492 -0.7755
   20PEO   O18913731   4.070   5.587   0.687 -0.1152  0.2200 -0.1733
   20PEO   H18A13732   3.972   5.702   0.834 -1.0571 -1.9299  0.2670
   20PEO   H18B13733   4.132   5.647   0.879  0.1275 -0.1942 -0.1013
   20PEO   C18C13734   4.042   5.618   0.823 -0.0474 -1.1608  0.6544
   20PEO   C18D13735   3.971   5.492   0.871 -0.5165 -0.3643  0.3389
   20PEO   H18E13736   4.020   5.404   0.826 -0.3130  0.4194 -1.0388
   20PEO   H18F13737   3.958   5.494   0.980 -0.4645 -2.1710  0.4098
   20PEO   O19013738   3.840   5.488   0.816  0.0220 -0.6635  0.1220
   20PEO   H19113739   3.830   5.300   0.743 -0.1951 -0.2704 -1.6268
   20PEO   H19213740   3.855   5.410   0.617  1.2607  1.8456  0.9409
   20PEO   C19313741   3.800   5.401   0.711 -0.0172  0.3619  0.0907
   20PEO   C19413742   3.650   5.413   0.677  0.0786 -0.7713 -0.1553
   20PEO   H19513743   3.629   5.520   0.672 -0.5868 -0.9378 -3.6852
   20PEO   H19613744   3.624   5.368   0.580  1.0128  1.2527 -1.3917
   20PEO   O19713745   3.574   5.346   0.791 -0.0899 -0.1358  0.3593
   20PEO   H19813746   3.405   5.289   0.684  1.3843  0.3648  0.0330
   20PEO   H19913747   3.382   5.424   0.798 -0.2310  0.3560  0.0070
   20PEO   C19A13748   3.430   5.326   0.784 -0.3623  0.2127  0.5529
   20PEO   C19B13749   3.399   5.233   0.899  0.2048  0.2630  0.6077
   20PEO   H19C13750   3.433   5.276   0.994  0.4111  2.3716 -0.3608
   20PEO   H19D13751   3.294   5.205   0.882  0.7154  0.0669 -3.1955
   20PEO   O19E13752   3.471   5.110   0.888 -0.3131 -0.7982 -0.2163
   20PEO   H19F13753   3.316   4.981   0.925 -1.1718  2.0358  0.5022
   20PEO   H1A013754   3.421   5.005   1.065 -1.4119 -1.6502 -0.4011
   20PEO   C1A113755   3.421   4.993   0.955 -0.5948  0.1732 -0.6440
   20PEO   C1A213756   3.514   4.870   0.922 -0.1638 -0.3469  0.4556
   20PEO   H1A313757   3.469   4.773   0.947 -1.8455  0.0577 -0.8606
   20PEO   H1A413758   3.515   4.872   0.812  0.8460 -1.3438  0.4253
   20PEO   O1A513759   3.654   4.893   0.965  0.9014  0.4089  0.3360
   20PEO   H1A613760   3.625   4.960   1.164  0.6758  0.3551 -0.2707
   20PEO   H1A713761   3.797   4.915   1.122 -0.2353  1.6001  1.2052
   20PEO   C1A813762   3.690   4.891   1.108  0.3036 -0.5452  0.3826
   20PEO   C1A913763   3.679   4.746   1.153 -0.1948 -0.1105  0.5598
   20PEO   H1AA13764   3.707   4.683   1.067  1.3225 -2.6819  2.7778
   20PEO   H1AB13765   3.754   4.727   1.231  1.0623  1.2644 -0.2680
   20PEO   O1AC13766   3.541   4.728   1.197  0.6503 -0.7286  0.1187
   20PEO   H1AD13767   3.540   4.556   1.304 -0.8131  1.7381  0.6942
   20PEO   H1AE13768   3.511   4.542   1.125 -0.9447 -0.4195  0.3497
   20PEO   C1AF13769   3.494   4.602   1.215  0.2616  0.9452 -0.3061
   20PEO   C1B013770   3.341   4.603   1.230 -0.0810 -0.1667 -0.5952
   20PEO   H1B113771   3.320   4.555   1.327  0.5931  0.6109 -0.0519
   20PEO   H1B213772   3.299   4.704   1.231  0.9873  0.2917 -0.0267
   20PEO   O1B313773   3.281   4.517   1.130 -0.1740  0.4217  0.7891
   20PEO   H1B413774   3.079   4.582   1.148 -0.1989  0.5152 -0.1101
   20PEO   H1B513775   3.116   4.443   1.248  2.5742  2.7912  1.8829
   20PEO   C1B613776   3.141   4.491   1.152 -0.4522  0.3322 -0.3356
   20PEO   C1B713777   3.092   4.381   1.048  0.9496 -1.0233  0.0128
   20PEO   H1B813778   2.984   4.385   1.028  0.3937 -2.9977  2.1586
   20PEO   H1B913779   3.153   4.381   0.956  3.1457 -4.3480  1.2696
   20PEO   O1BA13780   3.115   4.261   1.103 -0.1583 -0.0521 -0.3658
   20PEO   H1BB13781   3.093   4.149   0.936  3.1801  1.9950  1.3381
   20PEO   H1BC13782   2.935   4.193   1.038  1.0578  3.9191  2.3182
   20PEO   C1BD13783   3.041   4.162   1.032  0.2426  1.0230 -0.0025
   20PEO   C1BE13784   3.045   4.029   1.102 -0.5682  1.1229 -0.4038
   20PEO   H1BF13785   3.036   4.035   1.211  2.0525 -2.0238  0.1442
   20PEO   H1C013786   2.960   3.967   1.070 -0.0758  0.9240 -1.3669
   20PEO   O1C113787   3.177   3.966   1.082 -0.1748  0.8127  0.7234
   20PEO   H1C213788   3.130   3.758   1.079 -0.2366  0.1638 -0.6879
   20PEO   H1C313789   3.120   3.843   1.231 -2.6490  0.7543 -2.4612
   20PEO   C1C413790   3.181   3.834   1.139  0.0488 -0.0009 -0.7195
   20PEO   C1C513791   3.325   3.790   1.164  0.7772 -0.1615  0.5185
   20PEO   H1C613792   3.384   3.857   1.228  1.7441  0.5474 -1.0459
   20PEO   H1C713793   3.321   3.688   1.204 -0.5276 -0.8796 -1.2730
   20PEO   O1C813794   3.394   3.782   1.035  0.0408  0.0184  0.6498
   20PEO   H1C913795   3.561   3.717   0.939  2.3912  0.4067  0.8247
   20PEO   H1CA13796   3.497   3.599   1.057  0.9696 -0.6477 -1.5467
   20PEO   C1CB13797   3.518   3.705   1.039  0.2668 -0.2428 -0.1097
   20PEO   C1CC13798   3.633   3.748   1.133 -0.1027  0.1617  0.3404
   20PEO   H1CD13799   3.722   3.688   1.110  0.3423  0.9756 -0.1221
   20PEO   H1CE13800   3.652   3.855   1.115  1.7103  0.0793  1.5436
   20PEO   O1CF13801   3.598   3.724   1.265  0.1567  0.3097  0.0909
   20PEO   H1D013802   3.634   3.765   1.465 -0.1812  0.9688 -0.5606
   20PEO   H1D113803   3.617   3.905   1.373 -0.2534 -0.4016  3.1766
   20PEO   C1D213804   3.661   3.805   1.366  0.3819 -0.0483 -0.8344
   20PEO   C1D313805   3.815   3.803   1.365  0.6492 -0.0017  0.1808
   20PEO   H1D413806   3.859   3.843   1.457 -3.3495  1.7952  1.5194
   20PEO   H1D513807   3.842   3.697   1.351  3.4862  0.7706 -0.9757
   20PEO   O1D613808   3.858   3.880   1.253 -0.1608 -0.4563  0.8982
   20PEO   H1D713809   3.998   3.731   1.211 -1.9487  0.0521  1.1203
   20PEO   H1D813810   4.069   3.882   1.258 -2.1230  1.8113  1.4273
   20PEO   C1D913811   3.983   3.840   1.204 -0.4858  0.2145 -0.0532
   20PEO   C1DA13812   3.994   3.873   1.054 -1.1784 -0.2461  0.3828
   20PEO   H1DB13813   3.987   3.982   1.051  0.1894 -0.1649 -1.8016
   20PEO   H1DC13814   4.097   3.861   1.017 -0.9493 -0.4399  1.0506
   20PEO   O1DD13815   3.890   3.814   0.977  0.4802  0.0744  0.5770
   20PEO   H1DE13816   3.810   3.796   0.774  1.3502 -1.7589 -0.2649
   20PEO   H1DF13817   3.984   3.835   0.791  1.0675 -1.3658  1.6943
   20PEO   C1E013818   3.884   3.854   0.831  0.4019 -0.5374 -0.2363
   20PEO   C1E113819   3.847   3.998   0.809  0.3205  0.0329  0.3230
   20PEO   H1E213820   3.791   4.007   0.715  0.0926 -1.4564  0.2976
   20PEO   H1E313821   3.790   4.026   0.899 -1.2164  0.9898 -0.9153
   20PEO   O1E413822   3.966   4.075   0.817  0.7616 -0.1175  0.1655
   20PEO   H1E513823   3.888   4.241   0.914  3.3500  1.1203  3.8954
   20PEO   H1E613824   3.924   4.257   0.732  1.0669 -0.1667 -0.5185
   20PEO   C1E713825   3.952   4.213   0.829 -1.5344 -0.2502  0.2573
   20PEO   C1E813826   4.087   4.285   0.856  0.8799 -0.3230  0.0130
   20PEO   H1E913827   4.061   4.392   0.865  1.0676 -0.2513 -0.3102
   20PEO   H1EA13828   4.128   4.254   0.954  1.4889  0.9410  0.1737
   20PEO   O1EB13829   4.180   4.280   0.744 -0.2061  0.1491 -0.8318
   20PEO   H1EC13830   4.380   4.263   0.719  0.1767 -2.6534  1.4881
   20PEO   H1ED13831   4.331   4.243   0.889 -1.6062 -1.1218 -0.9408
   20PEO   C1EE13832   4.316   4.304   0.798 -0.5067  0.1060 -0.3457
   20PEO   C1EF13833   4.353   4.454   0.824  0.9532 -0.7363 -0.1525
   20PEO   H1F013834   4.294   4.494   0.908 -0.5135 -0.1636 -1.4280
   20PEO   H1F113835   4.456   4.462   0.864 -0.2820 -1.3932  3.5704
   20PEO   O1F213836   4.343   4.525   0.695  0.2566  0.3138  0.4034
   20PEO   H1F313837   4.166   4.645   0.748  1.3518  1.0940 -0.7536
   20PEO   H1F413838   4.139   4.493   0.663 -0.5104 -0.5484  0.9118
   20PEO   C1F513839   4.209   4.577   0.672 -0.1284 -0.7508 -0.0266
   20PEO   C1F613840   4.210   4.657   0.541  0.1414 -0.3314 -0.4856
   20PEO   H1F713841   4.127   4.730   0.542  1.7876  1.6410  0.2272
   20PEO   H1F813842   4.304   4.713   0.536 -0.0664 -0.0624 -1.5996
   20PEO   O1F913843   4.212   4.572   0.429 -0.3017 -0.3440 -0.3486
   20PEO   H1FA13844   4.310   4.701   0.300 -0.3075  1.2009  1.4242
   20PEO   H1FB13845   4.133   4.724   0.310  1.4101  0.8017 -0.1433
   20PEO   C1FC13846   4.213   4.649   0.307  0.4019 -0.3319  0.3450
   20PEO   C1FD13847   4.199   4.551   0.190  0.6749  0.0709  0.1298
   20PEO   H1FE13848   4.291   4.562   0.130  1.2965  1.8281  1.3465
   20PEO   H1FF13849   4.198   4.444   0.215  0.5853  0.5050  2.0908
   20PEO   O20013850   4.083   4.584   0.117 -0.0273  0.3916  0.6005
   20PEO   H20113851   4.079   4.410   0.006 -0.6390 -0.6022 -1.3317
   20PEO   H20213852   4.113   4.571  -0.084  1.8485 -0.0804  1.7038
   20PEO   C20313853   4.056   4.517  -0.007 -0.1512 -0.2989  0.1796
   20PEO   C20413854   3.899   4.521  -0.025 -0.5924 -0.2534 -0.0983
   20PEO   H20513855   3.875   4.439  -0.095  2.1685 -1.9204  0.7409
   20PEO   H20613856   3.847   4.497   0.069 -1.1188 -0.9240 -0.5537
   20PEO   O20713857   3.871   4.658  -0.071  0.0134 -0.7187  0.5498
   20PEO   H20813858   3.824   4.586  -0.254 -1.8645  0.4224 -0.6704
   20PEO   H20913859   3.976   4.668  -0.257 -1.6426  1.9239 -1.0194
   20PEO   C20A13860   3.875   4.675  -0.213 -1.4293 -0.0816 -0.0944
   20PEO   C20B13861   3.810   4.813  -0.244  0.4114 -0.0897  0.0310
   20PEO   H20C13862   3.745   4.800  -0.332 -0.6337 -3.0252  1.1013
   20PEO   H20D13863   3.763   4.861  -0.156 -1.8560  0.7046 -1.5095
   20PEO   O20E13864   3.914   4.896  -0.286 -0.1485  0.0648 -0.4116
   20PEO   H20F13865   3.825   5.086  -0.317 -0.8105 -0.4184 -0.0572
   20PEO   H21013866   3.799   4.964  -0.443  1.6347  1.2908 -3.5076
   20PEO   C21113867   3.873   5.004  -0.372 -0.4063  0.1298 -0.5440
   20PEO   C21213868   3.997   5.051  -0.459 -0.4484  0.3290 -0.0396
   20PEO   H21313869   4.048   4.963  -0.500 -1.2788 -0.6989  1.0637
   20PEO   H21413870   3.959   5.117  -0.539 -1.9785 -0.7962 -0.2711
   20PEO   O21513871   4.106   5.115  -0.379  0.3038 -0.1542  0.5700
   20PEO   H21613872   4.243   5.058  -0.541 -4.1718 -0.8184 -0.3437
   20PEO   H21713873   4.309   5.146  -0.396 -1.0546  5.0713  0.4028
   20PEO   C21813874   4.224   5.137  -0.466 -0.3103  0.1359 -0.1798
   20PEO   C21913875   4.220   5.276  -0.533  0.3476  0.0424 -0.1538
   20PEO   H21A13876   4.238   5.360  -0.465  1.2908 -0.4624  0.2252
   20PEO   H21B13877   4.314   5.282  -0.589  1.1705 -0.0813  1.1709
   20PEO   O21C13878   4.108   5.296  -0.619  0.4560 -0.6403  0.1102
   20PEO   H21D13879   4.169   5.462  -0.726 -1.0215  1.2170 -1.8079
   20PEO   H21E13880   4.089   5.502  -0.570  3.3516  2.2927 -2.4388
   20PEO   C21F13881   4.087   5.435  -0.658  0.8309 -0.8027 -0.2496
   20PEO   C22013882   3.952   5.469  -0.736 -0.4491  0.8797 -0.3055
   20PEO   H22113883   3.961   5.567  -0.784 -0.9083  0.6020 -0.9745
   20PEO   H22213884   3.953   5.396  -0.819 -2.5476 -1.2278  1.3819
   20PEO   O22313885   3.835   5.458  -0.657 -0.3281 -0.2346 -0.0341
   20PEO   H22413886   3.840   5.259  -0.601 -1.2438 -0.5094  0.3658
   20PEO   H22513887   3.695   5.346  -0.557 -0.7216  1.5500  1.5324
   20PEO   C22613888   3.804   5.356  -0.562 -0.5556 -0.3281  0.5538
   20PEO   C22713889   3.863   5.391  -0.420 -0.1316 -0.1907  0.9275
   20PEO   H22813890   3.829   5.310  -0.355  0.1807  0.0893  1.4420
   20PEO   H22913891   3.973   5.393  -0.423 -0.1332  0.4804 -2.3993
   20PEO   O22A13892   3.810   5.518  -0.380  1.0735  0.5286  1.0733
   20PEO   H22B13893   3.920   5.563  -0.219 -1.2986  3.5828  0.4860
   20PEO   H22C13894   3.800   5.432  -0.191 -0.3647 -0.0836 -0.2106
   20PEO   C22D13895   3.819   5.527  -0.244  0.2936 -0.5213 -0.7637
   20PEO   C22E13896   3.715   5.627  -0.193  0.0683 -0.1756 -0.2565
   20PEO   H22F13897   3.756   5.687  -0.111  2.9411  3.0768 -3.7223
   20PEO   H23013898   3.692   5.689  -0.281 -1.1188  1.1454  0.9370
   20PEO   O23113899   3.590   5.562  -0.163 -0.3612  0.5679 -0.5584
   20PEO   H23213900   3.484   5.716  -0.220 -0.4688  2.8807  1.5762
   20PEO   H23313901   3.524   5.713  -0.052  0.9168 -1.4761  0.3251
   20PEO   C23413902   3.485   5.649  -0.133  0.0728  0.0003 -0.4913
   20PEO   C23513903   3.351   5.593  -0.112 -0.0633 -0.0624 -0.8534
   20PEO   H23613904   3.277   5.674  -0.106 -0.7155 -0.7787  2.0767
   20PEO   H23713905   3.326   5.531  -0.200  1.1515 -1.3878 -0.3069
   20PEO   O23813906   3.343   5.513   0.012 -0.1780  0.6531  0.1674
   20PEO   H23913907   3.303   5.332  -0.076 -1.9325  1.2151 -0.7737
   20PEO   H23A13908   3.164   5.431  -0.054 -1.3954 -1.0761  0.6594
   20PEO   C23B13909   3.257   5.401  -0.003 -1.2472 -0.1002  0.9845
   20PEO   C23C13910   3.243   5.331   0.127 -0.0790 -0.5566 -0.4219
   20PEO   H23D13911   3.179   5.242   0.140  1.7173 -1.9172 -0.5245
   20PEO   H23E13912   3.341   5.303   0.169  0.7697  1.2792 -1.1048
   20PEO   O23F13913   3.183   5.434   0.211 -0.1893 -0.5707 -0.5588
   20PEO   H24013914   3.303   5.358   0.364  0.5325  0.5831 -0.2169
   20PEO   H24113915   3.136   5.317   0.383  1.1019 -0.6588  1.5549
   20PEO   C24213916   3.202   5.399   0.349  0.0807 -0.1324  0.7943
   20PEO   C24313917   3.166   5.521   0.442 -0.9181  0.0395 -0.2245
   20PEO   H24413918   3.205   5.504   0.544  3.1712 -1.7133 -1.8571
   20PEO   H24513919   3.203   5.615   0.401  1.7188 -0.2628  1.2342
   20PEO   O24613920   3.027   5.527   0.447  0.6785 -0.4141 -0.0405
   20PEO   H24713921   3.028   5.726   0.499  0.1295  0.4396  1.3092
   20PEO   H24813922   3.024   5.619   0.631  0.3722  0.0169  0.2521
   20PEO   C24913923   2.976   5.636   0.534 -0.4565  0.5434  0.7367
   20PEO   C24A13924   2.822   5.648   0.552  0.7453  0.1948  0.1699
   20PEO   H24B13925   2.781   5.563   0.608 -0.2298  0.3652 -0.2584
   20PEO   H24C13926   2.797   5.736   0.613  1.2066 -0.4672  1.3415
   20PEO   O24D13927   2.750   5.661   0.427  0.1053  0.0300 -0.5280
   20PEO   H24E13928   2.889   5.784   0.318 -0.5695 -1.6193  0.3726
   20PEO   H24F13929   2.768   5.876   0.416  0.3263  0.2609 -0.5588
   20PEO   C25013930   2.785   5.787   0.354 -0.6064 -0.4946  0.2329
   20PEO   C25113931   2.695   5.801   0.234  0.4597 -1.2295  1.3463
   20PEO   H25213932   2.588   5.794   0.257 -0.5569  2.4867 -1.2607
   20PEO   H25313933   2.710   5.896   0.180  0.8595 -3.0127 -1.9216
   20PEO   O25413934   2.723   5.704   0.126  0.3020  0.2389  0.4328
   20PEO   H25513935   2.841   5.825  -0.007 -1.9538 -1.0512 -2.2333
   20PEO   H25613936   2.815   5.658  -0.056 -2.3989 -2.4754  1.9326
   20PEO   C25713937   2.832   5.722   0.032 -0.3019 -0.3869  0.1577
   20PEO   C25813938   2.975   5.694   0.093  0.6045 -0.1771 -0.5047
   20PEO   H25913939   2.965   5.637   0.187  0.4546  0.6925  0.0209
   20PEO   H25A13940   3.026   5.637   0.015  0.3981  2.1663 -2.4645
   20PEO   O25B13941   3.040   5.816   0.132  0.2901  0.1421 -0.0659
   20PEO   H25C13942   3.237   5.779   0.076 -0.2224 -3.4861 -0.2635
   20PEO   H25D13943   3.181   5.692   0.218 -0.1763  0.4232  1.7130
   20PEO   C25E13944   3.178   5.790   0.168  0.5909 -0.3855 -0.0222
   20PEO   C25F13945   3.228   5.910   0.250  0.6143 -0.2447 -0.7058
   20PEO   H26013946   3.336   5.895   0.264  0.2266 -1.5306  1.2667
   20PEO   H26113947   3.217   6.003   0.192 -2.0132  0.4953  0.8198
   20PEO   O26213948   3.140   5.910   0.374 -0.2540  0.6429 -0.0065
   20PEO   H26313949   3.167   6.112   0.432  1.9807  0.3847 -1.1456
   20PEO   H26413950   3.294   5.996   0.483  0.0274 -1.0170  1.0732
   20PEO   C26513951   3.186   6.010   0.468  0.3256  0.4407  0.0226
   20PEO   C26613952   3.112   5.985   0.603  0.2382  0.4690 -0.8236
   20PEO   H26713953   3.085   5.879   0.610  0.9647  0.3139 -0.3849
   20PEO   H26813954   3.161   6.017   0.696 -0.7866  2.6523 -0.9529
   20PEO   O26913955   2.985   6.052   0.604 -0.6766  0.6066  0.9217
   20PEO   H26A13956   2.966   6.015   0.804  0.6709  1.5125  0.1313
   20PEO   H26B13957   2.880   5.905   0.680 -0.3078  0.4660 -0.5400
   20PEO   C26C13958   2.908   6.006   0.711  0.5536 -0.0220  0.3251
   20PEO   C26D13959   2.773   6.088   0.727 -0.9317 -0.0591  0.3058
   20PEO   H26E13960   2.727   6.098   0.627  2.0541  0.0150 -1.1468
   20PEO   H26F13961   2.695   6.031   0.780 -0.9592  0.6311  1.0333
   20PEO   O27013962   2.791   6.216   0.779  0.0860  0.1777 -0.4872
   20PEO   H27113963   2.886   6.325   0.928 -3.3565  2.6081 -0.4286
   20PEO   H27213964   2.904   6.145   0.943  0.2658  1.1291  1.5888
   20PEO   C27313965   2.838   6.227   0.910  0.2531  0.5762  0.1836
   20PEO   C27413966   2.713   6.239   1.008 -0.5971  0.6315 -0.4480
   20PEO   H27513967   2.640   6.176   0.954  1.1005  0.2336 -2.4081
   20PEO   H27613968   2.751   6.188   1.097  1.5162  0.4144 -1.3983
   20PEO   O27713969   2.668   6.376   1.029 -0.2904  0.1379  0.7943
   20PEO   H27813970   2.554   6.358   1.192  3.1497  0.6406 -0.2508
   20PEO   H27913971   2.463   6.321   1.040  0.7950  0.4041 -0.7691
   20PEO   C27A13972   2.541   6.383   1.086  0.8207 -0.0511 -0.1877
   20PEO   C27B13973   2.500   6.533   1.075 -0.0473  0.3591 -0.7691
   20PEO   H27C13974   2.586   6.598   1.100  0.4425 -0.8718  0.8989
   20PEO   H27D13975   2.474   6.559   0.971 -0.5314  0.5611 -0.6011
   20PEO   O27E13976   2.395   6.560   1.162  0.4716  0.5903  0.0897
   20PEO   H27F13977   2.364   6.746   1.086 -0.5226 -0.3147  1.0419
   20PEO   H28013978   2.244   6.713   1.205  3.1915  3.2286  0.5616
   20PEO   C28113979   2.301   6.664   1.124  0.0514 -1.0112  0.5352
   20PEO   C28213980   2.203   6.586   1.034 -0.3747 -0.0792  0.5436
   20PEO   H28313981   2.170   6.662   0.962  0.5128  0.1445  0.3615
   20PEO   H28413982   2.248   6.498   0.986  1.4722  1.2157 -0.2116
   20PEO   O28513983   2.087   6.548   1.096 -0.5068  0.5108 -0.4032
   20PEO   H28613984   2.183   6.512   1.278  0.3399 -1.4390 -0.0190
   20PEO   H28713985   2.147   6.365   1.169 -0.8711 -0.0868 -0.4284
   20PEO   C28813986   2.113   6.462   1.209 -0.5055 -0.0389 -0.2244
   20PEO   C28913987   1.989   6.433   1.286  0.0192  0.7624  0.1851
   20PEO   H28A13988   1.912   6.399   1.215 -2.0244  2.5638  1.3962
   20PEO   H28B13989   2.002   6.350   1.357 -1.4137  0.2266 -0.1364
   20PEO   O28C13990   1.953   6.549   1.362 -0.4020  0.1665 -0.0022
   20PEO   H28D13991   1.890   6.589   1.546  0.1674 -2.6949  2.9602
   20PEO   H28E13992   1.871   6.424   1.493  0.6394  0.3243 -1.3218
   20PEO   C28F13993   1.863   6.528   1.458  0.8060  0.8266  0.0631
   20PEO   C29013994   1.723   6.587   1.400 -0.8241 -0.1119 -0.0455
   20PEO   H29113995   1.654   6.573   1.484  0.1202 -1.7170  0.5057
   20PEO   H29213996   1.730   6.695   1.380 -0.5525  0.1958  1.5855
   20PEO   O29313997   1.680   6.505   1.279  0.0139  0.5456 -0.7264
   20PEO   H29413998   1.520   6.646   1.240  1.9514 -0.1196  0.5088
   20PEO   H29513999   1.482   6.480   1.299 -1.6309  1.5846 -0.1130
   20PEO   C29614000   1.549   6.540   1.235  0.4346 -0.5361 -0.0636
   20PEO   C29714001   1.536   6.483   1.096  1.3541  0.7466 -0.2264
   20PEO   H29814002   1.569   6.378   1.099 -0.8320  0.0166  3.3126
   20PEO   H29914003   1.427   6.485   1.082  1.6275  0.2311 -3.1196
   20PEO   O29A14004   1.602   6.561   0.997  0.6515  0.2493 -0.1426
   20PEO   H29B14005   1.764   6.436   0.938  1.1905 -0.1370  1.2395
   20PEO   H29C14006   1.779   6.518   1.090 -1.7336 -4.3790  1.0742
   20PEO   C29D14007   1.742   6.532   0.987  0.1440 -0.1233  0.7699
   20PEO   C29E14008   1.813   6.643   0.909  0.0485  0.1544 -0.4901
   20PEO   H29F14009   1.765   6.740   0.930 -0.7229 -0.2138 -0.5153
   20PEO   H2A014010   1.921   6.649   0.925 -0.2430  0.5301  1.6412
   20PEO   O2A114011   1.798   6.608   0.766 -0.9582 -0.3897 -0.5239
   20PEO   H2A214012   1.974   6.705   0.705  0.8219 -2.6839  0.0777
   20PEO   H2A314013   1.827   6.785   0.678 -0.1624 -0.6189  1.6386
   20PEO   C2A414014   1.873   6.685   0.668  0.2575 -0.2929  0.1929
   20PEO   C2A514015   1.867   6.617   0.529  0.1071  0.0583 -0.4920
   20PEO   H2A614016   1.951   6.659   0.471  1.1883  0.3755  1.2224
   20PEO   H2A714017   1.892   6.511   0.546  1.9837  0.6065  0.4507
   20PEO   O2A814018   1.754   6.649   0.456 -0.2335  0.0367 -0.4748
   20PEO   H2A914019   1.612   6.648   0.606  0.9704  2.2803 -1.5747
   20PEO   H2AA14020   1.646   6.493   0.524 -0.4437  0.0983  1.3013
   20PEO   C2AB14021   1.630   6.601   0.508 -0.1851 -0.1263 -0.7011
   20PEO   C2AC14022   1.515   6.620   0.399  0.1539 -0.0043 -0.0254
   20PEO   H2AD14023   1.557   6.574   0.309  2.0150 -0.3151  0.9337
   20PEO   H2AE14024   1.432   6.553   0.425  0.0580 -0.1260 -0.6472
   20PEO   O2AF14025   1.469   6.755   0.391  0.3953  0.1332 -0.3642
   20PEO   H2B014026   1.644   6.807   0.280  0.2157 -0.7257  0.8589
   20PEO   H2B114027   1.623   6.897   0.427 -0.0857 -1.9063  1.4092
   20PEO   C2B214028   1.567   6.852   0.343  0.0947 -0.1358  0.2947
   20PEO   C2B314029   1.487   6.962   0.273  0.0449  0.3076  0.7231
   20PEO   H2B414030   1.409   6.996   0.342 -0.9643  1.7929 -1.0449
   20PEO   H2B514031   1.563   7.040   0.255  3.0436 -1.7557  3.2290
   20PEO   O2B614032   1.427   6.913   0.151 -0.8439  0.5438  0.2770
   20PEO   H2B714033   1.433   7.079   0.031 -1.1451 -0.3981  1.2449
   20PEO   H2B814034   1.370   6.937  -0.050  1.2489 -0.6609 -0.4036
   20PEO   C2B914035   1.448   6.970   0.020  0.8443 -0.0231 -0.2447
   20PEO   C2BA14036   1.589   6.937  -0.028 -0.0068  0.5494  0.6092
   20PEO   H2BB14037   1.601   6.987  -0.126  0.2568  0.4451  0.5877
   20PEO   H2BC14038   1.661   6.974   0.047  0.0877 -0.2069  0.8952
   20PEO   O2BD14039   1.606   6.793  -0.034  0.0863 -1.3104 -0.6947
   20PEO   H2BE14040   1.535   6.751  -0.085 -0.2986  0.7705 -1.9658
   21PEO   H00114041   4.170   2.930   0.895  1.3721  0.1959  0.4613
   21PEO   H00214042   4.308   3.049   0.862  0.5550  1.3197  0.1962
   21PEO   H00314043   4.207   3.077   1.000  2.1482 -0.1290  0.6142
   21PEO   C00414044   4.206   3.034   0.899  0.7494  0.4199  0.3743
   21PEO   C00514045   4.119   3.125   0.803 -0.6850  0.2697  0.1452
   21PEO   H00614046   4.139   3.229   0.833  1.0159 -0.9699  3.9434
   21PEO   H00714047   4.145   3.105   0.698  1.2435 -1.6581  0.9137
   21PEO   O00814048   3.975   3.093   0.816 -0.1124 -0.3881 -0.1637
   21PEO   H00914049   3.963   3.127   1.019 -0.6991 -0.2580  0.4560
   21PEO   H00A14050   3.805   3.131   0.930 -0.4834  2.0539  0.1522
   21PEO   C00B14051   3.911   3.158   0.927 -0.0155  0.3000  0.2519
   21PEO   C00C14052   3.909   3.319   0.917 -0.1196  0.0210 -0.7674
   21PEO   H00D14053   3.908   3.356   0.814 -1.3053  0.3430 -0.6615
   21PEO   H00E14054   3.816   3.356   0.963 -0.3610  1.7145 -2.4859
   21PEO   O00F14055   4.022   3.373   0.999  0.3595  0.4931  1.0250
   21PEO   H01014056   3.940   3.556   1.072  0.5200 -3.0136  2.0323
   21PEO   H01114057   4.049   3.581   0.924  0.0429 -0.0243 -0.7633
   21PEO   C01214058   4.028   3.522   1.015  0.5128  0.4633 -0.3305
   21PEO   C01314059   4.148   3.533   1.112  0.1307 -0.2400 -0.0463
   21PEO   H01414060   4.227   3.471   1.065  1.1959  1.6218 -0.8021
   21PEO   H01514061   4.186   3.635   1.098 -0.5214  0.0620  0.3872
   21PEO   O01614062   4.107   3.500   1.245 -0.1138  0.3460 -0.0119
   21PEO   H01714063   4.225   3.637   1.362  1.1687 -1.1718 -0.0233
   21PEO   H01814064   4.288   3.479   1.311 -0.7195  0.3055 -1.9851
   21PEO   C01914065   4.199   3.531   1.350 -0.4622 -0.8351  0.2408
   21PEO   C01A14066   4.140   3.457   1.472 -0.2175  0.3524 -0.0811
   21PEO   H01B14067   4.122   3.356   1.435  2.5766 -0.1030 -0.4049
   21PEO   H01C14068   4.206   3.450   1.560 -1.1929 -0.5949  0.5955
   21PEO   O01D14069   4.021   3.521   1.502  0.4167  0.2868 -0.2465
   21PEO   H01E14070   3.996   3.474   1.707 -1.3437  0.0060  0.5427
   21PEO   H01F14071   3.929   3.359   1.601 -2.6203  0.4761  1.9000
   21PEO   C02014072   3.945   3.468   1.610 -0.1850  0.3893 -0.1178
   21PEO   C02114073   3.807   3.527   1.633 -0.1120  0.1084  0.5328
   21PEO   H02214074   3.810   3.637   1.623 -1.3504  0.0336 -1.0275
   21PEO   H02314075   3.733   3.486   1.564 -0.4765 -1.4711  1.7946
   21PEO   O02414076   3.769   3.507   1.771 -0.2974  0.0910 -0.4659
   21PEO   H02514077   3.559   3.460   1.732 -2.9606  0.7992  2.7497
   21PEO   H02614078   3.601   3.630   1.735 -1.4572  0.3940  2.1653
   21PEO   C02714079   3.627   3.533   1.778  0.7823 -0.3103 -0.5021
   21PEO   C02814080   3.577   3.536   1.919  0.5302  0.8382 -0.5802
   21PEO   H02914081   3.476   3.493   1.920  0.0247  2.0051 -0.2795
   21PEO   H02A14082   3.654   3.483   1.976 -0.0891  1.5572  0.9790
   21PEO   O02B14083   3.563   3.672   1.956 -0.3766  0.4621  0.0450
   21PEO   H02C14084   3.643   3.629   2.146  0.9446  1.8807 -1.2213
   21PEO   H02D14085   3.461   3.632   2.141 -1.7330  1.4506 -1.4448
   21PEO   C02E14086   3.553   3.675   2.100 -0.5268 -0.1749 -0.5415
   21PEO   C02F14087   3.542   3.817   2.154 -0.2287  0.6149  0.5884
   21PEO   H03014088   3.506   3.886   2.077 -0.8868 -1.6922 -1.2866
   21PEO   H03114089   3.463   3.815   2.230 -0.2398  0.7623  0.5815
   21PEO   O03214090   3.666   3.872   2.201 -0.3545  0.0651  0.2944
   21PEO   H03314091   3.641   3.977   2.374 -1.3210  1.2894 -0.8135
   21PEO   H03414092   3.572   4.051   2.235 -0.3015  0.7519  0.4757
   21PEO   C03514093   3.659   3.993   2.267 -0.2716  0.0344 -0.8503
   21PEO   C03614094   3.800   4.055   2.250 -0.0311 -0.0643 -0.4255
   21PEO   H03714095   3.801   4.150   2.306  0.0933 -1.7103  2.5202
   21PEO   H03814096   3.865   3.979   2.294 -1.6538 -1.2890 -0.0716
   21PEO   O03914097   3.818   4.074   2.104 -0.2547 -0.5142 -0.0894
   21PEO   H03A14098   4.020   4.086   2.122  0.5208  1.3575  0.9842
   21PEO   H03B14099   3.948   4.241   2.117  0.9476 -1.3283  1.7692
   21PEO   C03C14100   3.938   4.141   2.073 -0.0115 -0.4259 -0.2053
   21PEO   C03D14101   3.952   4.136   1.923  0.4066  0.2254 -0.1660
   21PEO   H03E14102   4.053   4.167   1.893 -0.6370  0.6546 -3.5407
   21PEO   H03F14103   3.943   4.029   1.898  2.0545 -0.3340  1.3669
   21PEO   O04014104   3.840   4.201   1.859  0.1570  0.5503 -0.6189
   21PEO   H04114105   3.954   4.206   1.686 -0.2717 -0.1590  0.2455
   21PEO   H04214106   3.790   4.269   1.666 -1.0474  0.3438  0.9926
   21PEO   C04314107   3.850   4.193   1.718 -0.3315  0.4046  0.2787
   21PEO   C04414108   3.814   4.056   1.662 -0.4363  0.1095  0.7804
   21PEO   H04514109   3.853   4.068   1.560  0.1591 -1.2877  0.8204
   21PEO   H04614110   3.872   3.973   1.704 -1.2423 -0.9086 -0.0752
   21PEO   O04714111   3.670   4.031   1.673  0.2899 -0.2239 -0.0593
   21PEO   H04814112   3.638   4.009   1.873 -0.5790  1.4856 -1.1621
   21PEO   H04914113   3.661   3.852   1.784 -0.2416  0.1104 -0.1983
   21PEO   C04A14114   3.621   3.955   1.779  0.1735  0.2535 -0.6113
   21PEO   C04B14115   3.469   3.938   1.753 -0.0889 -0.2539  0.1706
   21PEO   H04C14116   3.419   3.906   1.846 -0.7190  3.1720  1.1223
   21PEO   H04D14117   3.412   4.029   1.732  2.1529  1.5464  1.3789
   21PEO   O04E14118   3.453   3.845   1.649  0.1558  0.2491 -0.5058
   21PEO   H04F14119   3.240   3.833   1.683 -1.5538  2.5430 -0.2345
   21PEO   H05014120   3.299   3.740   1.550 -0.9309  1.8501 -2.7980
   21PEO   C05114121   3.318   3.833   1.606 -0.5584 -0.1705  0.6900
   21PEO   C05214122   3.284   3.951   1.511  0.3059 -0.2361 -0.5883
   21PEO   H05314123   3.372   3.968   1.448  0.7038 -3.8991 -1.2433
   21PEO   H05414124   3.205   3.908   1.448  0.1682 -0.1799 -0.4541
   21PEO   O05514125   3.242   4.073   1.578  0.8879  0.5344 -0.0139
   21PEO   H05614126   3.104   4.026   1.747 -2.2137  0.2373  0.3779
   21PEO   H05714127   3.037   4.015   1.582 -1.5311 -1.0671  2.8899
   21PEO   C05814128   3.111   4.067   1.645  0.6696 -0.5907  0.1441
   21PEO   C05914129   3.085   4.218   1.669  0.7244  0.8672 -0.0398
   21PEO   H05A14130   3.022   4.231   1.759  1.2877  1.1021  0.3277
   21PEO   H05B14131   3.178   4.272   1.694  0.3823  1.3937  0.1204
   21PEO   O05C14132   3.045   4.291   1.550  0.1889  0.2278 -0.3772
   21PEO   H05D14133   3.139   4.478   1.546  0.5463 -0.7708 -0.8752
   21PEO   H05E14134   3.034   4.452   1.679 -0.4213 -0.4709  0.2487
   21PEO   C05F14135   3.042   4.432   1.571  0.5058 -0.1135  0.2416
   21PEO   C06014136   2.913   4.485   1.507  0.3521  0.5769  0.5563
   21PEO   H06114137   2.945   4.580   1.463  0.1543  0.5216  0.2917
   21PEO   H06214138   2.867   4.413   1.438  1.9821 -0.4953  0.5197
   21PEO   O06314139   2.827   4.511   1.617 -0.0729 -0.5931 -0.3054
   21PEO   H06414140   2.733   4.394   1.776 -0.3013 -2.0944 -0.0100
   21PEO   H06514141   2.810   4.302   1.645  1.1999 -0.4306  1.7224
   21PEO   C06614142   2.753   4.394   1.668  0.2807 -0.5515  0.0826
   21PEO   C06714143   2.608   4.397   1.597  0.4891 -0.5802 -0.2100
   21PEO   H06814144   2.621   4.445   1.498 -2.1942 -0.0967 -0.4169
   21PEO   H06914145   2.574   4.295   1.578 -1.8547  0.3582 -1.5082
   21PEO   O06A14146   2.511   4.461   1.680  0.3250 -0.2625 -0.2547
   21PEO   H06B14147   2.365   4.342   1.589  1.1138  0.1009  0.2946
   21PEO   H06C14148   2.368   4.501   1.528 -0.6560 -0.2740 -0.3364
   21PEO   C06D14149   2.381   4.445   1.622 -0.6778  0.4698  0.1114
   21PEO   C06E14150   2.274   4.491   1.719  0.0323 -0.1923  0.2927
   21PEO   H06F14151   2.325   4.560   1.788 -0.6967 -1.1330  1.8005
   21PEO   H07014152   2.210   4.561   1.662  2.3195  2.2654  0.4963
   21PEO   O07114153   2.214   4.383   1.800  0.5326  0.2257  0.5354
   21PEO   H07214154   2.088   4.212   1.786 -0.5140  1.3707  1.1857
   21PEO   H07314155   2.215   4.219   1.658  1.5040  1.4638 -0.3554
   21PEO   C07414156   2.147   4.278   1.721 -0.2144 -0.3512 -0.4055
   21PEO   C07514157   2.033   4.349   1.631  0.1777  0.8107 -0.9268
   21PEO   H07614158   1.942   4.287   1.637  0.6519  0.2266  2.6765
   21PEO   H07714159   2.010   4.450   1.668  0.4166  0.7860 -0.7062
   21PEO   O07814160   2.072   4.358   1.490  0.2710 -0.2001  0.2465
   21PEO   H07914161   1.895   4.297   1.401 -0.7578 -0.7644  0.4038
   21PEO   H07A14162   2.020   4.371   1.295  0.5113  1.5478  0.0353
   21PEO   C07B14163   1.969   4.377   1.392 -0.2834 -1.2507 -0.1066
   21PEO   C07C14164   1.908   4.520   1.404  0.6051  0.6416 -0.2798
   21PEO   H07D14165   1.829   4.531   1.329 -1.8505 -2.7114  1.5482
   21PEO   H07E14166   1.856   4.533   1.501 -0.1488  2.0523 -0.8470
   21PEO   O07F14167   2.010   4.622   1.405  0.2233 -0.2777  0.4679
   21PEO   H08014168   2.039   4.634   1.208 -0.8490 -0.6837  0.9501
   21PEO   H08114169   2.148   4.535   1.281 -0.3724 -0.5119  1.3909
   21PEO   C08214170   2.100   4.632   1.299  0.1754 -0.0260  0.2893
   21PEO   C08314171   2.213   4.739   1.304  0.1790  0.1423 -0.4653
   21PEO   H08414172   2.290   4.719   1.228  0.3054  1.9612 -0.8620
   21PEO   H08514173   2.183   4.844   1.291  0.3243  0.0381 -1.7479
   21PEO   O08614174   2.276   4.726   1.439 -0.4858 -0.0776 -0.4523
   21PEO   H08714175   2.396   4.907   1.407 -0.6487  0.2196 -1.9976
   21PEO   H08814176   2.478   4.748   1.381 -0.4469 -2.8212  0.1765
   21PEO   C08914177   2.403   4.802   1.440  1.0521  0.6470 -0.8372
   21PEO   C08A14178   2.463   4.799   1.589 -0.1122  0.3298  0.6496
   21PEO   H08B14179   2.480   4.696   1.621 -2.0762 -0.0680  0.5156
   21PEO   H08C14180   2.559   4.853   1.586  1.4561 -2.2362  1.6083
   21PEO   O08D14181   2.373   4.854   1.685  0.4845  0.0860  0.2786
   21PEO   H08E14182   2.499   4.765   1.832  1.1287  1.8076  0.5016
   21PEO   H08F14183   2.338   4.826   1.888 -0.1763 -0.6308  0.6521
   21PEO   C09014184   2.421   4.842   1.818 -0.6635  0.0225  0.2188
   21PEO   C09114185   2.484   4.987   1.840  0.4595 -0.4673  0.3565
   21PEO   H09214186   2.519   5.000   1.943  0.3797  1.4207  0.1866
   21PEO   H09314187   2.568   5.003   1.771  0.0147  0.2766 -0.0222
   21PEO   O09414188   2.388   5.091   1.815 -0.0756  0.2624 -0.6339
   21PEO   H09514189   2.495   5.203   1.658 -1.4064  0.3066  0.1307
   21PEO   H09614190   2.513   5.264   1.819  0.9648  0.9924 -0.9165
   21PEO   C09714191   2.442   5.210   1.755  0.2575 -0.6605  1.1548
   21PEO   C09814192   2.330   5.321   1.749 -0.1067  0.8718  0.0495
   21PEO   H09914193   2.255   5.290   1.674 -1.0367 -1.7797  1.9465
   21PEO   H09A14194   2.281   5.323   1.847 -2.2963  0.2819 -0.9609
   21PEO   O09B14195   2.390   5.446   1.720  0.0122  0.4356  0.4287
   21PEO   H09C14196   2.349   5.640   1.760 -1.6687  0.2105 -0.0160
   21PEO   H09D14197   2.206   5.537   1.773 -0.2353  0.4501 -0.1613
   21PEO   C09E14198   2.297   5.554   1.714 -0.1413 -0.5768 -0.3354
   21PEO   C09F14199   2.261   5.597   1.570  0.2617  0.4269 -0.6363
   21PEO   H0A014200   2.211   5.695   1.572 -0.5124  0.0400 -0.6683
   21PEO   H0A114201   2.350   5.601   1.506 -0.0032  1.7027 -0.9447
   21PEO   O0A214202   2.156   5.503   1.526 -0.1605 -0.4265 -0.1669
   21PEO   H0A314203   2.053   5.650   1.409  0.0146 -0.0777 -0.8879
   21PEO   H0A414204   1.991   5.489   1.380 -0.4353  0.2962  0.0020
   21PEO   C0A514205   2.083   5.544   1.404 -0.1405 -0.1742 -0.0250
   21PEO   C0A614206   2.190   5.533   1.291  0.2364  0.4626  0.1976
   21PEO   H0A714207   2.158   5.593   1.204  2.4507 -0.3818 -1.3144
   21PEO   H0A814208   2.288   5.574   1.322 -0.1047  2.4294 -1.1490
   21PEO   O0A914209   2.188   5.394   1.255  0.2602  0.3385  1.0282
   21PEO   H0AA14210   2.359   5.293   1.325  3.7798 -0.8722 -1.7538
   21PEO   H0AB14211   2.382   5.355   1.155  1.2575  1.8794  2.9398
   21PEO   C0AC14212   2.310   5.317   1.229 -0.5171 -0.2091  0.3362
   21PEO   C0AD14213   2.279   5.173   1.181  0.3327  0.0242 -0.2818
   21PEO   H0AE14214   2.369   5.120   1.145  0.4995 -0.2282  0.4931
   21PEO   H0AF14215   2.227   5.129   1.268  0.4127  0.6660  0.0921
   21PEO   O0B014216   2.183   5.185   1.073  0.0868  0.1696  0.5324
   21PEO   H0B114217   2.112   4.993   1.075 -2.6208 -0.9998 -2.8741
   21PEO   H0B214218   2.268   5.014   0.985  1.5409  2.6257  1.6714
   21PEO   C0B314219   2.169   5.057   1.006 -0.1502 -0.0503 -0.1536
   21PEO   C0B414220   2.087   5.069   0.882 -0.4271 -0.6668  0.1467
   21PEO   H0B514221   2.052   4.972   0.843  0.5561 -2.3039  3.0176
   21PEO   H0B614222   1.999   5.133   0.896 -1.6781 -1.1542 -3.8952
   21PEO   O0B714223   2.168   5.132   0.777  0.5950 -0.3275 -0.6003
   21PEO   H0B814224   2.354   5.022   0.772  0.4407 -1.6410 -1.6273
   21PEO   H0B914225   2.326   5.118   0.632 -0.0801  1.0727  0.3424
   21PEO   C0BA14226   2.273   5.061   0.709  0.1221  0.1383 -0.1901
   21PEO   C0BB14227   2.199   4.943   0.635  0.1148  0.0790 -0.6808
   21PEO   H0BC14228   2.090   4.959   0.635  0.0392 -0.3737 -0.0797
   21PEO   H0BD14229   2.236   4.951   0.532  3.2564  3.5493  0.5214
   21PEO   O0BE14230   2.231   4.824   0.709 -0.3032 -0.1592  0.0595
   21PEO   H0BF14231   2.436   4.832   0.683  0.6536 -1.1853  2.0282
   21PEO   H0C014232   2.337   4.734   0.562 -3.2104 -0.9906  0.3797
   21PEO   C0C114233   2.353   4.761   0.668 -0.1995  0.2078 -0.2763
   21PEO   C0C214234   2.363   4.639   0.768 -0.0745  0.2489 -0.3919
   21PEO   H0C314235   2.470   4.620   0.782  0.0732  1.3779  0.1580
   21PEO   H0C414236   2.321   4.666   0.866 -0.7280  2.3318 -1.1899
   21PEO   O0C514237   2.304   4.528   0.710 -0.1987  0.3138  0.2616
   21PEO   H0C614238   2.197   4.489   0.870  0.6816  0.0474  0.1757
   21PEO   H0C714239   2.325   4.363   0.837  0.5331  0.4784 -1.2093
   21PEO   C0C814240   2.250   4.431   0.793 -0.1706  0.1632 -0.5199
   21PEO   C0C914241   2.146   4.354   0.713  0.0747  0.2875  0.9978
   21PEO   H0CA14242   2.066   4.312   0.776 -0.0653  0.9093  1.2417
   21PEO   H0CB14243   2.094   4.424   0.646 -1.5778 -0.1786  1.7298
   21PEO   O0CC14244   2.210   4.241   0.637 -0.0617  0.0544  1.0832
   21PEO   H0CD14245   2.105   4.087   0.749  1.6473 -0.5846  5.5356
   21PEO   H0CE14246   2.256   4.124   0.811 -1.2369 -3.8883  0.5947
   21PEO   C0CF14247   2.204   4.118   0.714 -0.0968 -0.3952 -0.3751
   21PEO   C0D014248   2.260   4.005   0.628  0.1369 -0.0543 -0.1780
   21PEO   H0D114249   2.327   4.054   0.556 -0.9619 -0.8091 -1.7743
   21PEO   H0D214250   2.331   3.944   0.687  1.2670  0.7653 -0.6420
   21PEO   O0D314251   2.157   3.926   0.568  0.0864 -0.0068 -0.1861
   21PEO   H0D414252   2.139   4.023   0.382  1.9473  1.6491  1.4904
   21PEO   H0D514253   2.024   4.071   0.505  0.2537 -0.1801 -0.8717
   21PEO   C0D614254   2.076   3.983   0.464  1.0274 -0.1361 -0.0126
   21PEO   C0D714255   1.957   3.886   0.421  0.0773 -0.4846  0.3435
   21PEO   H0D814256   1.887   3.864   0.503 -2.3285  0.8470 -1.2145
   21PEO   H0D914257   1.900   3.946   0.349  2.8355  1.1790 -0.6159
   21PEO   O0DA14258   2.004   3.781   0.353 -0.3618  0.6605 -0.4712
   21PEO   H0DB14259   1.819   3.710   0.299  0.4402 -0.1874 -0.2798
   21PEO   H0DC14260   1.883   3.632   0.448 -1.7322  0.2051  0.2314
   21PEO   C0DD14261   1.909   3.671   0.349 -0.0678 -0.6320  0.3041
   21PEO   C0DE14262   1.981   3.558   0.266 -1.1733  0.9655 -0.7785
   21PEO   H0DF14263   1.899   3.499   0.221 -0.3353 -1.6790  0.9074
   21PEO   H0E014264   2.046   3.601   0.188  1.3103  0.0580  0.6823
   21PEO   O0E114265   2.057   3.474   0.354 -0.3621  0.2355 -0.1161
   21PEO   H0E214266   2.140   3.622   0.477  0.6339  1.1520 -0.3953
   21PEO   H0E314267   2.233   3.581   0.327 -0.3409 -0.8255 -0.4022
   21PEO   C0E414268   2.170   3.542   0.408 -0.2556  0.2755  0.1980
   21PEO   C0E514269   2.257   3.442   0.487  1.1344 -0.2771 -0.5513
   21PEO   H0E614270   2.349   3.487   0.527  0.6076  0.5803 -0.2752
   21PEO   H0E714271   2.192   3.405   0.568 -1.7550 -0.9159 -3.0030
   21PEO   O0E814272   2.288   3.332   0.395 -0.3348  0.1685 -0.6343
   21PEO   H0E914273   2.474   3.405   0.307 -0.2489  0.9852  1.5148
   21PEO   H0EA14274   2.318   3.438   0.227 -0.0479  0.3605  0.5502
   21PEO   C0EB14275   2.374   3.363   0.285  0.1944  0.4421  0.4243
   21PEO   C0EC14276   2.403   3.232   0.199  0.7353 -0.7495 -0.0373
   21PEO   H0ED14277   2.313   3.170   0.204  0.3269 -0.4465 -2.5301
   21PEO   H0EE14278   2.413   3.255   0.092  0.7109  1.8287  0.4442
   21PEO   O0EF14279   2.516   3.168   0.246  0.0540  0.0215  0.0814
   21PEO   H0F014280   2.403   3.036   0.371 -0.3258  1.4380  1.7584
   21PEO   H0F114281   2.487   3.162   0.455 -1.5855 -1.0141  0.3937
   21PEO   C0F214282   2.496   3.095   0.368  0.3935  0.3339 -0.5150
   21PEO   C0F314283   2.615   3.001   0.404 -0.3087  0.3804 -0.4540
   21PEO   H0F414284   2.598   2.943   0.496 -1.7174  2.2210  0.4954
   21PEO   H0F514285   2.628   2.929   0.322 -0.0449 -1.0104  0.7588
   21PEO   O0F614286   2.735   3.081   0.427  0.7122  0.0480 -0.6504
   21PEO   H0F714287   2.889   2.965   0.342 -0.3206 -1.2237  1.0494
   21PEO   H0F814288   2.866   2.933   0.509  0.3078  0.9496  1.5017
   21PEO   C0F914289   2.866   3.016   0.437 -0.7029 -0.0113  0.3286
   21PEO   C0FA14290   2.977   3.120   0.477 -0.1134 -0.8315  0.0150
   21PEO   H0FB14291   3.074   3.075   0.449  0.7060  1.1605 -0.5027
   21PEO   H0FC14292   2.976   3.215   0.423  1.1049 -0.4801  0.5693
   21PEO   O0FD14293   2.958   3.150   0.617  0.9443  0.5163 -0.2500
   21PEO   H0FE14294   3.019   3.345   0.661 -1.3399 -0.6468  1.8343
   21PEO   H0FF14295   3.154   3.230   0.619  1.6774  1.4969  2.0523
   21PEO   C10014296   3.055   3.241   0.665  0.4579 -0.1687  0.0094
   21PEO   C10114297   3.086   3.207   0.814 -0.9128  0.0769  0.3601
   21PEO   H10214298   3.187   3.247   0.830 -2.8593  5.2162  1.5657
   21PEO   H10314299   3.029   3.259   0.892  0.1141 -0.9141  1.8348
   21PEO   O10414300   3.091   3.062   0.838  0.4954  0.2573 -0.0115
   21PEO   H10514301   3.050   3.097   1.041 -0.4546  0.1035 -0.6294
   21PEO   H10614302   3.209   3.038   1.006 -0.4779  2.1342 -0.4246
   21PEO   C10714303   3.104   3.026   0.977 -0.2964 -0.0778 -0.2925
   21PEO   C10814304   3.054   2.882   1.013 -0.1670 -0.5328  0.1499
   21PEO   H10914305   3.076   2.864   1.119  1.2732  1.6883  0.2975
   21PEO   H10A14306   2.944   2.889   1.009 -0.2380 -1.5264  0.0546
   21PEO   O10B14307   3.116   2.788   0.928 -0.0545 -0.1794 -0.1582
   21PEO   H10C14308   2.995   2.620   0.994  1.2018 -1.9430  0.4393
   21PEO   H10D14309   3.147   2.641   1.070  0.0839 -0.6990 -0.5138
   21PEO   C10E14310   3.097   2.653   0.973  0.3315  0.3240 -0.5209
   21PEO   C10F14311   3.151   2.547   0.877  0.3099 -0.0345  0.3514
   21PEO   H11014312   3.250   2.578   0.839  0.0486  2.2597  1.3724
   21PEO   H11114313   3.159   2.459   0.941 -0.8805  0.4314  1.1745
   21PEO   O11214314   3.055   2.540   0.767 -0.6072 -0.5209 -0.2796
   21PEO   H11314315   3.032   2.340   0.747 -0.5681 -0.5200 -0.9910
   21PEO   H11414316   3.172   2.417   0.657 -0.4678  2.1885 -0.0387
   21PEO   C11514317   3.067   2.426   0.688 -0.6123  0.2751  0.1097
   21PEO   C11614318   2.981   2.439   0.564 -0.1031 -0.5017  0.0197
   21PEO   H11714319   2.974   2.337   0.525  0.7336 -0.5559 -0.0146
   21PEO   H11814320   2.875   2.465   0.580  0.0923  0.0005  0.5547
   21PEO   O11914321   3.042   2.538   0.473  0.3188  0.4285 -0.0667
   21PEO   H11A14322   3.016   2.707   0.599  1.3031  0.6641 -0.2874
   21PEO   H11B14323   2.889   2.684   0.476  0.8870  2.2910 -3.4074
   21PEO   C11C14324   2.997   2.673   0.496  0.1776  0.0292  0.1159
   21PEO   C11D14325   3.077   2.762   0.401 -0.0318  0.2613 -0.2098
   21PEO   H11E14326   3.058   2.861   0.444  0.3128  0.1078  0.3087
   21PEO   H11F14327   3.186   2.747   0.410  0.0594 -1.3160 -2.7472
   21PEO   O12014328   3.028   2.747   0.262 -0.0951 -0.2961  0.8555
   21PEO   H12114329   3.104   2.721   0.069  1.8398  0.0473 -0.7494
   21PEO   H12214330   3.222   2.787   0.193 -0.4316  3.1373  0.6578
   21PEO   C12314331   3.119   2.787   0.155 -0.2572 -0.2447 -0.1086
   21PEO   C12414332   3.097   2.936   0.111  0.3545  0.3680 -0.2227
   21PEO   H12514333   2.995   2.939   0.069 -0.0421  1.0688  0.7512
   21PEO   H12614334   3.088   3.005   0.196 -0.8164  0.7584 -0.6432
   21PEO   O12714335   3.210   2.962   0.036  0.0857 -0.5987  0.3923
   21PEO   H12814336   3.309   3.123  -0.042 -0.1612  0.4918  0.4606
   21PEO   H12914337   3.155   3.176  -0.006 -0.1832  0.4732  0.0600
   21PEO   C12A14338   3.205   3.087  -0.047 -0.2369  0.8603 -0.8620
   21PEO   C12B14339   3.169   3.061  -0.188 -0.3132 -0.5572  0.1352
   21PEO   H12C14340   3.223   3.137  -0.248  0.1269  0.4837  1.7907
   21PEO   H12D14341   3.214   2.964  -0.213 -0.8830 -0.5521 -0.9743
   21PEO   O12E14342   3.031   3.051  -0.213 -0.0912  0.1896 -0.5260
   21PEO   H12F14343   3.004   3.154  -0.377  1.2531  1.1091  0.1623
   21PEO   H13014344   3.026   3.246  -0.217 -0.0905  0.3129 -1.0338
   21PEO   C13114345   2.977   3.164  -0.271 -0.1530 -0.3288 -0.0257
   21PEO   C13214346   2.824   3.161  -0.268 -0.5292  0.0789 -0.5416
   21PEO   H13314347   2.801   3.110  -0.174 -0.0372 -0.8590 -0.9113
   21PEO   H13414348   2.792   3.266  -0.270  2.3927  1.0971  0.8888
   21PEO   O13514349   2.777   3.082  -0.382  0.1516 -0.1285  0.5261
   21PEO   H13614350   2.605   3.187  -0.466  0.2089 -0.8943 -1.9122
   21PEO   H13714351   2.560   3.094  -0.327 -0.4217  1.4818 -0.5478
   21PEO   C13814352   2.628   3.093  -0.414 -0.0543 -0.0714 -0.2649
   21PEO   C13914353   2.584   2.985  -0.520 -0.1778 -1.0121 -0.3362
   21PEO   H13A14354   2.528   3.034  -0.601 -3.4909 -1.5884  1.3963
   21PEO   H13B14355   2.667   2.927  -0.561  0.0933  0.3507 -1.7823
   21PEO   O13C14356   2.473   2.908  -0.460 -0.1128  0.1174  0.0755
   21PEO   H13D14357   2.311   2.982  -0.569  0.8594  0.1271 -0.3514
   21PEO   H13E14358   2.349   3.070  -0.420 -0.7924  0.0796 -0.9969
   21PEO   C13F14359   2.345   2.970  -0.465  0.4633 -0.3145 -0.2725
   21PEO   C14014360   2.237   2.876  -0.391 -0.3194 -0.7811 -0.6050
   21PEO   H14114361   2.137   2.920  -0.396 -1.5455 -2.4547  4.0822
   21PEO   H14214362   2.228   2.781  -0.446 -1.2426 -0.4723 -1.0067
   21PEO   O14314363   2.262   2.857  -0.256  0.4848  0.2420 -0.3913
   21PEO   H14414364   2.207   3.046  -0.166 -0.4913 -1.7426  1.5071
   21PEO   H14514365   2.374   3.023  -0.211  2.2404 -1.2015  3.1197
   21PEO   C14614366   2.286   2.969  -0.172  0.4298 -0.7387  0.0554
   21PEO   C14714367   2.324   2.924  -0.021  0.0110  0.1001 -0.2259
   21PEO   H14814368   2.346   3.006   0.049  0.5971 -1.3851  1.4122
   21PEO   H14914369   2.243   2.867   0.025 -0.2391  0.9730  0.4506
   21PEO   O14A14370   2.448   2.849  -0.024 -1.1216  0.4378 -0.0659
   21PEO   H14B14371   2.559   2.975   0.090 -0.1707 -1.1322  0.4296
   21PEO   H14C14372   2.566   3.001  -0.089  2.7778 -2.0620 -1.8645
   21PEO   C14D14373   2.568   2.927  -0.008  0.6623 -0.2053  0.0287
   21PEO   C14E14374   2.684   2.833  -0.027 -0.4877  0.4645  0.3706
   21PEO   H14F14375   2.673   2.798  -0.130  1.3457  1.3459 -0.1691
   21PEO   H15014376   2.782   2.883  -0.026  0.0650 -0.5712 -0.3291
   21PEO   O15114377   2.680   2.730   0.078 -0.0556 -0.5580 -0.0446
   21PEO   H15214378   2.877   2.687   0.073 -0.7695  0.5290  0.0892
   21PEO   H15314379   2.798   2.558  -0.005  1.5554  0.0320  0.8346
   21PEO   C15414380   2.782   2.631   0.076 -0.7783  0.5379 -0.0003
   21PEO   C15514381   2.777   2.563   0.216 -0.0179  0.4877  0.5038
   21PEO   H15614382   2.862   2.493   0.216 -0.3275  0.0882 -0.2850
   21PEO   H15714383   2.797   2.635   0.296  0.7395 -0.0552  0.8146
   21PEO   O15814384   2.658   2.480   0.228 -0.2515  1.0922  0.1504
   21PEO   H15914385   2.519   2.521   0.381 -2.9854 -3.4315  2.8491
   21PEO   H15A14386   2.688   2.502   0.435  0.6001 -0.0420  0.0514
   21PEO   C15B14387   2.612   2.464   0.366 -0.3005  0.9738  0.4609
   21PEO   C15C14388   2.588   2.317   0.404  0.6668  0.5851  0.7811
   21PEO   H15D14389   2.527   2.301   0.494  2.2399 -3.2565  1.3710
   21PEO   H15E14390   2.544   2.265   0.317 -0.7041  1.6279  0.8166
   21PEO   O15F14391   2.711   2.250   0.439 -0.0022  0.5093  0.2222
   21PEO   H16014392   2.783   2.072   0.501  0.4808 -1.0980 -1.6055
   21PEO   H16114393   2.645   2.050   0.402  1.4579  1.2522 -1.2160
   21PEO   C16214394   2.685   2.117   0.480  0.7498  0.3247 -0.0214
   21PEO   C16314395   2.604   2.103   0.616  0.3779  0.1576  0.4891
   21PEO   H16414396   2.500   2.134   0.598  0.3033 -0.5027 -0.3020
   21PEO   H16514397   2.599   1.997   0.646 -2.5957 -0.0031 -0.2141
   21PEO   O16614398   2.665   2.180   0.716  0.3444 -0.1096  0.0381
   21PEO   H16714399   2.633   2.055   0.882  1.4635  1.2375  0.8325
   21PEO   H16814400   2.493   2.166   0.837  0.3042  2.4385 -1.0465
   21PEO   C16914401   2.603   2.153   0.841  0.0861  0.8465  0.8836
   21PEO   C16A14402   2.652   2.255   0.949  1.0021 -0.0806  0.0225
   21PEO   H16B14403   2.714   2.208   1.027  0.1128  1.1947  1.5453
   21PEO   H16C14404   2.723   2.314   0.889 -0.6970 -0.6693 -2.7604
   21PEO   O16D14405   2.547   2.333   1.003 -0.3831 -0.1900  0.4829
   21PEO   H16E14406   2.499   2.235   1.177 -2.8419 -1.3792  1.1404
   21PEO   H16F14407   2.428   2.157   1.029 -4.3731  1.9493 -2.1671
   21PEO   C17014408   2.453   2.251   1.079 -0.5809 -0.1024  0.2449
   21PEO   C17114409   2.318   2.319   1.101 -0.3590 -1.0763 -0.6579
   21PEO   H17214410   2.273   2.280   1.193  2.3028  0.5841  1.4998
   21PEO   H17314411   2.320   2.427   1.123 -2.1883 -0.9143 -1.1266
   21PEO   O17414412   2.243   2.293   0.974  0.1979 -0.0551  0.1301
   21PEO   H17514413   2.075   2.321   0.860  0.2912  0.4428  0.3075
   21PEO   H17614414   2.149   2.469   0.905 -1.1460  0.4416  0.4087
   21PEO   C17714415   2.126   2.369   0.944 -0.5598  0.4629  0.8177
   21PEO   C17814416   2.026   2.374   1.057 -0.3590 -0.0638 -0.5615
   21PEO   H17914417   2.081   2.389   1.151  0.9271 -1.5717 -1.0427
   21PEO   H17A14418   1.965   2.463   1.035 -0.0933  0.3271  0.2408
   21PEO   O17B14419   1.953   2.244   1.064 -0.3768  0.3636 -0.5121
   21PEO   H17C14420   1.779   2.154   1.148  0.6402 -0.2605  1.0958
   21PEO   H17D14421   1.774   2.325   1.135  0.4794 -0.6517 -0.9416
   21PEO   C17E14422   1.842   2.243   1.159  0.5341 -0.1440  0.7635
   21PEO   C17F14423   1.897   2.263   1.308  0.2709 -0.5456 -0.3823
   21PEO   H18014424   1.918   2.368   1.333  1.4449 -0.6233 -1.0104
   21PEO   H18114425   1.815   2.246   1.380  1.0202  3.1425  1.6328
   21PEO   O18214426   2.019   2.192   1.334 -0.3239  0.3996 -0.2095
   21PEO   H18314427   1.979   2.007   1.237 -0.1888  1.2085 -0.7579
   21PEO   H18414428   1.915   2.019   1.394  0.0303 -1.5593 -1.6083
   21PEO   C18514429   2.002   2.051   1.335  0.2607  0.1693 -0.3809
   21PEO   C18614430   2.122   1.981   1.392  1.1503 -0.2276 -0.8018
   21PEO   H18714431   2.128   1.880   1.349  0.2805 -0.4673 -0.3840
   21PEO   H18814432   2.214   2.034   1.363  1.4235 -1.1517 -1.7315
   21PEO   O18914433   2.120   1.960   1.532 -0.7807 -0.2750  0.2562
   21PEO   H18A14434   2.032   2.153   1.563 -2.2053 -2.7439 -0.6449
   21PEO   H18B14435   2.202   2.135   1.608 -1.2979  3.5629 -1.2111
   21PEO   C18C14436   2.106   2.083   1.605  0.3479  0.1823  0.1397
   21PEO   C18D14437   2.061   2.039   1.744  0.5619 -0.9311 -0.7567
   21PEO   H18E14438   2.115   1.956   1.792  0.3541  0.8403  2.9056
   21PEO   H18F14439   2.085   2.113   1.822  0.9818 -0.4897 -1.2971
   21PEO   O19014440   1.920   2.011   1.758  0.8468  0.5275  0.0694
   21PEO   H19114441   1.937   1.796   1.767 -0.5339  1.0089  2.2035
   21PEO   H19214442   1.901   1.864   1.610 -0.7882 -0.1591  0.0707
   21PEO   C19314443   1.877   1.875   1.717 -0.4247 -0.1363  0.1511
   21PEO   C19414444   1.731   1.857   1.761  0.0879 -0.6973 -0.2770
   21PEO   H19514445   1.696   1.754   1.745 -0.9941 -0.8257  2.3138
   21PEO   H19614446   1.712   1.895   1.863 -2.4859  1.3237 -1.4039
   21PEO   O19714447   1.654   1.937   1.670  0.2730  0.4742 -0.3381
   21PEO   H19814448   1.484   1.954   1.806 -1.5702 -1.2331 -0.3959
   21PEO   H19914449   1.452   1.869   1.657  0.9595 -0.6727  0.5348
   21PEO   C19A14450   1.508   1.954   1.699  0.3354  0.0325 -0.0192
   21PEO   C19B14451   1.471   2.084   1.634  0.0797  0.6713  0.0178
   21PEO   H19C14452   1.375   2.117   1.675 -0.8397 -1.5421 -0.2042
   21PEO   H19D14453   1.551   2.157   1.652  0.7893 -0.0079 -0.3554
   21PEO   O19E14454   1.461   2.051   1.496 -0.0590  0.2294 -0.4040
   21PEO   H19F14455   1.617   2.170   1.419 -0.3863  0.5250 -1.8135
   21PEO   H1A014456   1.478   2.255   1.449  2.2741  1.4664  1.2671
   21PEO   C1A114457   1.509   2.156   1.411 -0.5893  1.1324 -0.4290
   21PEO   C1A214458   1.474   2.137   1.265 -0.0772  0.6553  0.2418
   21PEO   H1A314459   1.543   2.200   1.207  1.5230 -0.2196  1.1234
   21PEO   H1A414460   1.477   2.031   1.236 -0.5218  0.2124  1.6991
   21PEO   O1A514461   1.336   2.186   1.251  0.0282  0.3262  0.2730
   21PEO   H1A614462   1.262   2.099   1.088  1.5109  0.3631  0.2345
   21PEO   H1A714463   1.373   2.233   1.050  1.7235  0.8867  2.1553
   21PEO   C1A814464   1.290   2.203   1.114  0.4741  0.5911  0.4591
   21PEO   C1A914465   1.177   2.312   1.103 -0.3726  0.4694  0.3430
   21PEO   H1AA14466   1.136   2.297   1.003  0.6188 -0.0645  0.0110
   21PEO   H1AB14467   1.094   2.302   1.175 -0.5507  1.2348  0.2525
   21PEO   O1AC14468   1.228   2.446   1.118  0.2372  0.4155 -0.1435
   21PEO   H1AD14469   1.362   2.435   1.274  1.6725  1.6888 -2.5690
   21PEO   H1AE14470   1.184   2.436   1.315 -2.7931  1.6439 -1.1116
   21PEO   C1AF14471   1.264   2.480   1.253 -0.2214 -0.8541  0.1484
   21PEO   C1B014472   1.264   2.637   1.258  0.4461  0.5152  0.3469
   21PEO   H1B114473   1.277   2.657   1.365 -1.5787 -1.0206  0.9424
   21PEO   H1B214474   1.344   2.678   1.194  1.8637 -1.0724  1.0403
   21PEO   O1B314475   1.134   2.689   1.225  0.0750  0.0592  0.2082
   21PEO   H1B414476   1.050   2.693   1.407  1.6138 -1.6363 -0.2049
   21PEO   H1B514477   1.020   2.548   1.316  2.2353 -0.1008  0.6206
   21PEO   C1B614478   1.022   2.658   1.307  0.4182 -0.1279 -0.4351
   21PEO   C1B714479   0.885   2.716   1.254 -0.1236 -0.1650 -0.5721
   21PEO   H1B814480   0.904   2.757   1.154  1.2961  1.0096  0.1352
   21PEO   H1B914481   0.799   2.648   1.265 -0.5038  0.4105  0.1258
   21PEO   O1BA14482   0.853   2.834   1.331  0.2139 -0.5619  0.0708
   21PEO   H1BB14483   0.960   2.965   1.231  0.3295 -0.1984  0.5213
   21PEO   H1BC14484   1.015   2.915   1.400 -0.3167  1.1658  0.2607
   21PEO   C1BD14485   0.932   2.947   1.335 -0.8407 -0.2258  0.2210
   21PEO   C1BE14486   0.852   3.068   1.389 -0.5588 -0.4114  0.2451
   21PEO   H1BF14487   0.799   3.022   1.474 -0.6613 -0.4454  0.1622
   21PEO   H1C014488   0.924   3.140   1.431  0.6837 -0.0926 -2.2465
   21PEO   O1C114489   0.760   3.128   1.289  0.7516 -0.1445 -0.4907
   21PEO   H1C214490   0.711   3.315   1.349  1.6898 -0.3848 -0.3142
   21PEO   H1C314491   0.635   3.185   1.446  1.0132 -0.0416  0.2855
   21PEO   C1C414492   0.666   3.215   1.345  0.5583  0.0955  0.1852
   21PEO   C1C514493   0.553   3.230   1.239  0.1948 -0.4315 -0.2355
   21PEO   H1C614494   0.527   3.130   1.201  0.6761 -0.8800  0.5761
   21PEO   H1C714495   0.459   3.263   1.284 -0.6596 -1.0801 -1.5022
   21PEO   O1C814496   0.599   3.316   1.127 -0.3680 -0.4049  0.4452
   21PEO   H1C914497   0.465   3.232   0.977 -1.4095 -1.3964  2.3146
   21PEO   H1CA14498   0.550   3.383   0.929 -1.5178  1.4791  0.5980
   21PEO   C1CB14499   0.506   3.327   1.013 -1.0022 -0.4641 -0.3484
   21PEO   C1CC14500   0.393   3.429   1.047  0.2445 -0.2735  0.1461
   21PEO   H1CD14501   0.348   3.448   0.948 -2.9859 -0.2681  1.4807
   21PEO   H1CE14502   0.318   3.386   1.115  0.2875  0.0103  0.3765
   21PEO   O1CF14503   0.455   3.541   1.109 -0.2006  0.3541  0.1634
   21PEO   H1D014504   0.287   3.651   1.160  0.3534 -1.3354  0.1558
   21PEO   H1D114505   0.393   3.729   1.036 -0.3439  2.3213  0.9673
   21PEO   C1D214506   0.391   3.665   1.125 -0.0100  0.4569 -0.2924
   21PEO   C1D314507   0.461   3.752   1.239  0.0289  0.5376 -0.7266
   21PEO   H1D414508   0.560   3.783   1.204 -0.2269  0.3251 -1.6701
   21PEO   H1D514509   0.407   3.846   1.253 -2.7009 -1.2756  2.9182
   21PEO   O1D614510   0.458   3.672   1.356  0.6114 -0.0765  0.6802
   21PEO   H1D714511   0.282   3.558   1.341  0.4997  0.2904  0.7006
   21PEO   H1D814512   0.259   3.697   1.455 -2.4529 -1.1546  0.6537
   21PEO   C1D914513   0.330   3.623   1.416 -0.4644  0.2983  1.3230
   21PEO   C1DA14514   0.367   3.529   1.535  0.1802 -0.4311  0.6349
   21PEO   H1DB14515   0.276   3.474   1.565 -0.1604  0.8175  1.9754
   21PEO   H1DC14516   0.456   3.476   1.497  0.2892  0.8364 -1.0115
   21PEO   O1DD14517   0.399   3.608   1.651 -0.4497  0.5454  0.9024
   21PEO   H1DE14518   0.357   3.431   1.776  0.8188 -0.6357 -2.8772
   21PEO   H1DF14519   0.416   3.580   1.869  1.9741  1.3841 -0.2816
   21PEO   C1E014520   0.416   3.524   1.774  0.0898  0.0370  0.4435
   21PEO   C1E114521   0.564   3.477   1.783 -0.4379  0.0379  0.5406
   21PEO   H1E214522   0.634   3.541   1.729  0.3900 -1.7267 -0.5712
   21PEO   H1E314523   0.589   3.485   1.890  0.4524  1.5885  0.2411
   21PEO   O1E414524   0.588   3.344   1.738  0.3002  0.3760  0.4206
   21PEO   H1E514525   0.705   3.178   1.750 -2.1078  0.1128  2.5330
   21PEO   H1E614526   0.731   3.290   1.882 -2.0413  1.2385  0.9159
   21PEO   C1E714527   0.710   3.285   1.774  0.1841  0.5550  0.4625
   21PEO   C1E814528   0.826   3.342   1.685  0.4292 -0.5670 -0.7286
   21PEO   H1E914529   0.910   3.272   1.682 -0.6632 -1.9343 -0.7970
   21PEO   H1EA14530   0.781   3.343   1.584  0.1936 -0.9620 -0.6296
   21PEO   O1EB14531   0.873   3.479   1.737  0.1792 -0.0716  0.3597
   21PEO   H1EC14532   0.969   3.651   1.682 -2.6469  0.8394  0.0302
   21PEO   H1ED14533   0.899   3.566   1.550  0.9978  2.1199 -0.8056
   21PEO   C1EE14534   0.957   3.549   1.642 -0.1886  0.6215 -0.3096
   21PEO   C1EF14535   1.084   3.469   1.618  0.0782 -0.3278  0.5047
   21PEO   H1F014536   1.065   3.363   1.596  1.2647 -0.1166 -1.8943
   21PEO   H1F114537   1.142   3.511   1.535 -0.3146 -0.9255 -0.0828
   21PEO   O1F214538   1.156   3.484   1.740  0.4656  0.1627 -0.7146
   21PEO   H1F314539   1.340   3.414   1.681  0.9475  0.1970  1.2288
   21PEO   H1F414540   1.241   3.303   1.781 -0.5697 -1.0108 -2.9412
   21PEO   C1F514541   1.275   3.407   1.769 -0.0699 -0.6823  0.4361
   21PEO   C1F614542   1.339   3.478   1.892 -0.1048  0.2738  0.0623
   21PEO   H1F714543   1.262   3.507   1.964 -1.4123  2.3219 -2.0259
   21PEO   H1F814544   1.415   3.415   1.940 -1.0900  2.1124  4.5178
   21PEO   O1F914545   1.408   3.594   1.844 -0.0138  0.2488 -0.4778
   21PEO   H1FA14546   1.548   3.623   1.986  0.3957 -1.9509 -1.5045
   21PEO   H1FB14547   1.380   3.668   2.023 -0.1639  1.7891 -0.3389
   21PEO   C1FC14548   1.457   3.668   1.944  0.2018 -0.9012 -0.0479
   21PEO   C1FD14549   1.479   3.813   1.892 -0.6213  0.7240 -0.2776
   21PEO   H1FE14550   1.524   3.870   1.974  1.6213 -0.1948 -0.7849
   21PEO   H1FF14551   1.560   3.812   1.817 -0.8755 -0.1863 -0.5632
   21PEO   O20014552   1.357   3.873   1.847 -0.2764 -0.0916  0.3812
   21PEO   H20114553   1.396   3.950   1.660 -0.8353 -0.2662 -0.7894
   21PEO   H20214554   1.373   4.076   1.793  0.3114 -0.3063  0.7882
   21PEO   C20314555   1.343   3.978   1.753  0.3264  0.0862 -0.2108
   21PEO   C20414556   1.188   3.985   1.708 -0.1718  0.2860  0.0774
   21PEO   H20514557   1.165   4.040   1.616 -0.0473  0.4533  0.1437
   21PEO   H20614558   1.152   3.882   1.703  0.6448 -0.2739  3.4374
   21PEO   O20714559   1.099   4.061   1.800 -0.3469 -0.2352 -0.3716
   21PEO   H20814560   0.914   4.087   1.862 -0.0092 -3.0770  1.7789
   21PEO   H20914561   0.939   3.939   1.775 -1.0525  0.7634 -0.8467
   21PEO   C20A14562   0.968   4.045   1.776  0.2490  0.4231  0.0751
   21PEO   C20B14563   0.916   4.118   1.654  0.3231  0.4015 -0.0807
   21PEO   H20C14564   0.808   4.129   1.669  0.7071  0.9204  2.7938
   21PEO   H20D14565   0.954   4.219   1.632  2.5135 -0.3331  0.0684
   21PEO   O20E14566   0.931   4.024   1.542 -0.3297  0.4566 -0.3207
   21PEO   H20F14567   0.894   4.001   1.347 -0.0399  0.8330  0.2723
   21PEO   H21014568   0.830   4.153   1.415  0.9560  0.3252  1.1603
   21PEO   C21114569   0.842   4.045   1.433 -0.3281  0.0543  0.5012
   21PEO   C21214570   0.699   3.971   1.446 -0.6747  0.0646 -0.2506
   21PEO   H21314571   0.638   3.982   1.355 -3.4509  1.9870  1.6591
   21PEO   H21414572   0.717   3.866   1.471 -2.8169 -0.5691 -1.2032
   21PEO   O21514573   0.616   4.032   1.545  0.8136 -0.6061  0.1251
   21PEO   H21614574   0.587   3.853   1.645  2.7870  0.5726 -1.1390
   21PEO   H21714575   0.451   3.900   1.543 -0.8173 -1.4972  2.3135
   21PEO   C21814576   0.526   3.939   1.612  0.6891 -0.3369  0.1393
   21PEO   C21914577   0.454   3.997   1.730 -0.4005  0.2004 -1.1710
   21PEO   H21A14578   0.384   4.077   1.701 -0.2947 -0.0158 -2.0696
   21PEO   H21B14579   0.395   3.916   1.775  1.1315  0.0485  0.6810
   21PEO   O21C14580   0.543   4.040   1.831 -0.1925  0.1169 -0.0780
   21PEO   H21D14581   0.576   3.832   1.884 -2.0980  0.3877  0.2298
   21PEO   H21E14582   0.486   3.941   1.992 -1.3505  1.6163 -0.9478
   21PEO   C21F14583   0.572   3.935   1.923 -0.2779  0.4150  0.4324
   21PEO   C22014584   0.708   3.956   2.005  0.3526 -0.3934  0.4979
   21PEO   H22114585   0.708   3.871   2.075 -1.0788 -2.3644 -1.7077
   21PEO   H22214586   0.800   3.946   1.947 -0.2724 -2.4774 -0.2399
   21PEO   O22314587   0.700   4.077   2.084  0.2819 -0.6070 -0.7808
   21PEO   H22414588   0.910   4.120   2.108  0.7511 -0.9728  0.8617
   21PEO   H22514589   0.827   4.012   2.226  0.4094 -0.5187  0.1387
   21PEO   C22614590   0.818   4.104   2.166  0.1431 -0.6143  0.0273
   21PEO   C22714591   0.796   4.221   2.268 -0.4075  1.0303 -0.9439
   21PEO   H22814592   0.688   4.221   2.284 -0.4720  1.0893 -1.3784
   21PEO   H22914593   0.845   4.198   2.364  0.5151  0.8095 -1.4543
   21PEO   O22A14594   0.840   4.343   2.218 -0.1788  0.1888 -0.8757
   21PEO   H22B14595   0.873   4.437   2.401  2.4182  1.6986 -1.4966
   21PEO   H22C14596   0.711   4.460   2.326 -0.2284  0.6777 -0.8784
   21PEO   C22D14597   0.819   4.452   2.306 -0.1752  0.0656 -0.3881
   21PEO   C22E14598   0.872   4.581   2.238  0.3227 -0.1619 -0.4507
   21PEO   H22F14599   0.924   4.656   2.300  1.9367 -1.2927 -0.3690
   21PEO   H23014600   0.950   4.543   2.170  0.1450 -1.7638  0.1922
   21PEO   O23114601   0.759   4.648   2.169  0.2118 -0.3374  0.3074
   21PEO   H23214602   0.891   4.768   2.043  0.0151 -0.7926  0.3184
   21PEO   H23314603   0.807   4.853   2.182 -1.0386  1.6077 -1.2210
   21PEO   C23414604   0.800   4.775   2.104 -0.3741  0.6838 -0.3882
   21PEO   C23514605   0.699   4.816   1.996  0.1604 -0.8605  0.0098
   21PEO   H23614606   0.745   4.894   1.933  1.9995  0.4385  2.7283
   21PEO   H23714607   0.673   4.731   1.932  0.5988 -1.2260  0.3136
   21PEO   O23814608   0.579   4.879   2.055  0.1853 -0.2492 -0.0512
   21PEO   H23914609   0.501   4.710   2.151  0.6948 -2.3509 -2.3172
   21PEO   H23A14610   0.457   4.723   1.979  0.7340 -0.6512  0.6607
   21PEO   C23B14611   0.467   4.780   2.073 -0.4035  0.2047  0.2889
   21PEO   C23C14612   0.344   4.849   2.123  0.2500 -0.9431 -0.2719
   21PEO   H23D14613   0.277   4.765   2.149  1.6878 -2.2735 -0.6628
   21PEO   H23E14614   0.367   4.905   2.215  0.8344 -0.7201 -0.5470
   21PEO   O23F14615   0.289   4.932   2.017 -0.3846 -0.4688 -0.3467
   21PEO   H24014616   0.219   5.110   2.094 -0.2447  0.1209  0.3365
   21PEO   H24114617   0.107   4.977   2.106 -0.4550  2.3788  0.8513
   21PEO   C24214618   0.185   5.020   2.041 -0.1941  0.4114 -0.2008
   21PEO   C24314619   0.113   5.058   1.914  0.2418  0.2681  0.3145
   21PEO   H24414620   0.056   5.152   1.922 -1.4014 -0.6548  0.0024
   21PEO   H24514621   0.190   5.077   1.837 -1.4106 -1.3372 -1.8942
   21PEO   O24614622   0.028   4.950   1.877 -0.3613  0.0905 -0.1557
   21PEO   H24714623   0.179   4.819   1.810  2.4134  1.9025 -3.0033
   21PEO   H24814624   0.096   4.903   1.680 -1.8922 -1.1278 -0.5363
   21PEO   C24914625   0.082   4.858   1.779  0.3299 -0.1824  0.2656
   21PEO   C24A14626  -0.028   4.750   1.768 -0.4414  0.3051  0.4215
   21PEO   H24B14627  -0.124   4.792   1.802  0.1558  1.0564  1.1923
   21PEO   H24C14628  -0.038   4.727   1.660 -0.0960  0.2132  0.4079
   21PEO   O24D14629   0.004   4.636   1.835 -0.2394  0.4193 -0.0423
   21PEO   H24E14630  -0.096   4.687   2.012 -0.9773 -1.9365  0.5507
   21PEO   H24F14631   0.080   4.698   2.006 -0.8565 -1.2307  0.9273
   21PEO   C25014632  -0.005   4.635   1.977 -0.7341 -0.6779 -0.7696
   21PEO   C25114633   0.001   4.494   2.038  0.0998  0.6706  0.0869
   21PEO   H25214634  -0.040   4.501   2.140  1.8120 -2.4060  1.1271
   21PEO   H25314635  -0.066   4.427   1.982  1.0739  0.9764 -1.5146
   21PEO   O25414636   0.134   4.444   2.042  0.0376  0.9640 -0.0939
   21PEO   H25514637   0.163   4.400   1.837 -0.8787 -2.5519 -0.3418
   21PEO   H25614638   0.114   4.268   1.927 -1.6694  1.6758  0.2788
   21PEO   C25714639   0.178   4.357   1.936  0.3744  0.2086  0.7675
   21PEO   C25814640   0.326   4.314   1.964 -0.1824 -0.3925  1.0515
   21PEO   H25914641   0.331   4.299   2.073  3.7477 -2.1914  0.8134
   21PEO   H25A14642   0.351   4.217   1.919 -2.8990 -1.0617  0.8215
   21PEO   O25B14643   0.417   4.422   1.928 -0.0435 -0.6859  1.0064
   21PEO   H25C14644   0.557   4.329   2.059  0.9729 -0.2668 -0.1051
   21PEO   H25D14645   0.593   4.497   2.023  1.5148 -0.9118 -0.3587
   21PEO   C25E14646   0.551   4.405   1.979 -0.5479 -0.2158  0.0378
   21PEO   C25F14647   0.644   4.369   1.861 -0.4683 -0.5027 -0.2088
   21PEO   H26014648   0.730   4.321   1.910 -0.3833  1.3201  1.5863
   21PEO   H26114649   0.600   4.292   1.796 -1.6932 -0.1323  0.1479
   21PEO   O26214650   0.671   4.496   1.796 -0.0206  0.3083 -0.2216
   21PEO   H26314651   0.765   4.428   1.615 -1.4819 -1.9543  1.1527
   21PEO   H26414652   0.871   4.454   1.743 -0.2074 -0.2389 -0.7496
   21PEO   C26514653   0.778   4.496   1.700 -0.5277 -0.3708 -0.1994
   21PEO   C26614654   0.798   4.651   1.657 -0.0494 -0.5746 -0.4789
   21PEO   H26714655   0.872   4.656   1.576 -0.8219  0.1252 -1.1637
   21PEO   H26814656   0.708   4.704   1.624 -0.1672  1.1876  2.3160
   21PEO   O26914657   0.857   4.719   1.769  0.5429  0.0762  0.5030
   21PEO   H26A14658   1.038   4.803   1.713  0.2235 -0.1126  1.3157
   21PEO   H26B14659   0.964   4.870   1.860 -1.0611  1.3861 -0.1596
   21PEO   C26C14660   0.943   4.838   1.756 -0.2480  0.2744  0.0030
   21PEO   C26D14661   0.877   4.949   1.673 -0.2586  0.0528  0.4360
   21PEO   H26E14662   0.772   4.919   1.660 -0.6472  1.0179  1.1950
   21PEO   H26F14663   0.879   5.047   1.723 -2.3808 -0.5442  1.8570
   21PEO   O27014664   0.937   4.943   1.541  0.0744 -0.5007 -0.6798
   21PEO   H27114665   0.820   5.090   1.450  0.0738 -0.3409 -0.1756
   21PEO   H27214666   0.771   4.919   1.423 -0.2863  1.2826 -1.7479
   21PEO   C27314667   0.856   4.988   1.432  0.7648 -0.1984  0.3472
   21PEO   C27414668   0.930   4.989   1.292  0.2041 -0.5202 -0.2198
   21PEO   H27514669   0.996   4.901   1.292  0.0456 -0.6441 -0.6657
   21PEO   H27614670   0.852   4.994   1.215  0.7579 -0.2256 -0.7663
   21PEO   O27714671   1.013   5.103   1.291 -0.2810 -0.1607  0.2677
   21PEO   H27814672   1.166   5.008   1.174  1.6311  0.9108  0.0372
   21PEO   H27914673   1.210   5.160   1.241  0.1288 -1.0059 -0.6464
   21PEO   C27A14674   1.123   5.106   1.199 -0.6991  0.0154 -0.2729
   21PEO   C27B14675   1.085   5.182   1.071  0.1747  0.0198  1.0754
   21PEO   H27C14676   1.046   5.281   1.100 -1.7567 -0.6834  1.0251
   21PEO   H27D14677   1.181   5.206   1.023  1.5803 -4.5021  1.1668
   21PEO   O27E14678   0.990   5.120   0.981 -0.6777  0.2329 -0.3267
   21PEO   H27F14679   1.081   5.181   0.818  0.3081  1.5705 -0.3352
   21PEO   H28014680   0.940   5.291   0.865 -2.4859 -0.4179 -1.0009
   21PEO   C28114681   0.977   5.188   0.852  0.0970  0.3870 -0.6668
   21PEO   C28214682   0.878   5.112   0.771 -0.1010  0.4692 -0.2579
   21PEO   H28314683   0.888   5.129   0.663 -0.7140 -2.5394 -0.8685
   21PEO   H28414684   0.904   5.006   0.781 -1.5166 -0.0485 -1.7243
   21PEO   O28514685   0.747   5.143   0.809  0.0596 -0.4484 -0.2981
   21PEO   H28614686   0.571   5.061   0.887  3.2095 -0.4700  2.8225
   21PEO   H28714687   0.699   4.948   0.871  0.8855 -0.3905 -1.6335
   21PEO   C28814688   0.654   5.035   0.820  0.8086  0.1158 -0.7157
   21PEO   C28914689   0.597   4.998   0.682 -0.2830 -0.0532 -0.1160
   21PEO   H28A14690   0.669   5.018   0.601 -2.8167 -0.4981 -2.6541
   21PEO   H28B14691   0.574   4.890   0.687  0.1863 -0.2903 -2.1780
   21PEO   O28C14692   0.476   5.069   0.657 -0.6046 -0.3375 -0.0743
   21PEO   H28D14693   0.512   5.188   0.484 -3.5626  0.6847 -0.3899
   21PEO   H28E14694   0.557   5.250   0.650  0.8601 -1.4915 -0.0026
   21PEO   C28F14695   0.484   5.193   0.590 -0.7025 -0.0947  0.5045
   21PEO   C29014696   0.344   5.260   0.584 -0.0344  0.5221 -0.0522
   21PEO   H29114697   0.297   5.261   0.683  0.4258  2.7695  0.2001
   21PEO   H29214698   0.361   5.364   0.554 -0.0630  0.2666 -1.0206
   21PEO   O29314699   0.275   5.196   0.475 -0.2575  0.1382 -0.4483
   21PEO   H29414700   0.080   5.228   0.525  1.7786  1.7740  2.7881
   21PEO   H29514701   0.102   5.164   0.365 -3.5908 -0.4466  3.2664
   21PEO   C29614702   0.145   5.235   0.437  0.2837 -0.6194  1.3824
   21PEO   C29714703   0.134   5.378   0.376 -0.9882  0.2755  0.0465
   21PEO   H29814704   0.214   5.388   0.302  2.7376 -0.2425  3.6229
   21PEO   H29914705   0.033   5.395   0.338 -0.9665  0.0220 -0.1266
   21PEO   O29A14706   0.141   5.464   0.487 -0.3688 -0.5850  0.5795
   21PEO   H29B14707   0.083   5.649   0.428 -0.1076  0.9182  1.3296
   21PEO   H29C14708   0.244   5.602   0.366 -1.5169  1.3012 -1.1768
   21PEO   C29D14709   0.175   5.595   0.451 -0.2654 -0.0884 -0.2219
   21PEO   C29E14710   0.228   5.669   0.580  0.2375  1.2549  0.0529
   21PEO   H29F14711   0.214   5.776   0.557 -1.0945  1.1617  0.3754
   21PEO   H2A014712   0.161   5.647   0.664  0.2806  2.6380  0.4765
   21PEO   O2A114713   0.364   5.643   0.625  0.1528 -0.3986  0.4429
   21PEO   H2A214714   0.448   5.817   0.550 -0.1580  0.0942  2.8705
   21PEO   H2A314715   0.434   5.674   0.431  1.9690  0.5761 -0.2022
   21PEO   C2A414716   0.459   5.709   0.532  0.1284  0.4774  0.3209
   21PEO   C2A514717   0.600   5.662   0.568 -0.3007  0.4441  0.4148
   21PEO   H2A614718   0.675   5.729   0.523 -0.2620 -1.0526 -1.9131
   21PEO   H2A714719   0.601   5.665   0.678 -2.4468 -0.2418  0.4881
   21PEO   O2A814720   0.612   5.528   0.518 -0.4074 -0.4426 -0.3269
   21PEO   H2A914721   0.806   5.571   0.469  1.1445 -0.3466  1.1070
   21PEO   H2AA14722   0.760   5.406   0.431 -2.3871  0.3133 -1.1040
   21PEO   C2AB14723   0.749   5.484   0.507 -0.6788  0.0474 -0.5371
   21PEO   C2AC14724   0.800   5.447   0.649  0.0842 -0.2056 -0.8837
   21PEO   H2AD14725   0.734   5.372   0.696 -2.2622  1.4400 -1.3662
   21PEO   H2AE14726   0.897   5.396   0.639  0.0101  0.0333 -3.3747
   21PEO   O2AF14727   0.829   5.570   0.722 -0.2557  0.5027  0.1719
   21PEO   H2B014728   1.016   5.528   0.811  0.1397 -0.2350 -1.2824
   21PEO   H2B114729   0.871   5.510   0.917  1.6300 -1.6342 -1.7523
   21PEO   C2B214730   0.916   5.568   0.834  0.6100  0.6941 -0.7745
   21PEO   C2B314731   0.938   5.711   0.887  0.7043 -0.5705  0.4296
   21PEO   H2B414732   0.845   5.769   0.886 -1.3527 -3.5994 -0.4202
   21PEO   H2B514733   0.979   5.686   0.986  4.8590 -0.0210 -0.9366
   21PEO   O2B614734   1.048   5.770   0.813 -0.1632 -0.4409  0.2529
   21PEO   H2B714735   1.075   5.911   0.961  2.7789  0.4518 -0.2280
   21PEO   H2B814736   0.981   5.963   0.806  1.2228  0.0718 -0.4223
   21PEO   C2B914737   1.062   5.905   0.852  0.5846 -0.4930  0.0271
   21PEO   C2BA14738   1.188   5.962   0.786  0.4629 -0.4056  0.5039
   21PEO   H2BB14739   1.163   5.983   0.681 -1.8621 -0.1412  1.0624
   21PEO   H2BC14740   1.205   6.064   0.823 -2.4999  0.1718  0.5178
   21PEO   O2BD14741   1.300   5.878   0.795 -0.3844 -0.0422  0.4335
   21PEO   H2BE14742   1.309   5.862   0.890 -0.2830  1.2416  0.6569
   22PEO   H00114743   0.371   1.747   1.451 -0.8162 -0.1668 -0.3157
   22PEO   H00214744   0.403   1.575   1.422  1.9148  0.2447 -0.5930
   22PEO   H00314745   0.275   1.633   1.541 -0.3272  3.7694 -0.8059
   22PEO   C00414746   0.375   1.648   1.499  0.5548 -0.2579 -0.5778
   22PEO   C00514747   0.479   1.634   1.606 -0.4804 -0.2524  0.2894
   22PEO   H00614748   0.525   1.535   1.600  2.7544  1.1667 -0.3837
   22PEO   H00714749   0.547   1.719   1.590 -1.5288  0.6838  0.6694
   22PEO   O00814750   0.414   1.653   1.732 -0.2613 -0.4362  0.3376
   22PEO   H00914751   0.579   1.708   1.859 -1.1373  1.4460  3.6069
   22PEO   H00A14752   0.528   1.544   1.879 -1.3642 -0.3339 -1.0810
   22PEO   C00B14753   0.490   1.644   1.855 -0.3680  0.4011  0.2907
   22PEO   C00C14754   0.402   1.691   1.976  0.4574 -0.0112 -0.1712
   22PEO   H00D14755   0.311   1.629   1.976  0.6901 -0.3909 -1.8685
   22PEO   H00E14756   0.467   1.681   2.065 -1.1220  0.0659  1.0392
   22PEO   O00F14757   0.368   1.828   1.959 -0.5154  0.2419  0.0175
   22PEO   H01014758   0.416   1.884   2.151  0.8086  1.6426  0.0131
   22PEO   H01114759   0.246   1.844   2.134 -0.2344  1.5842  0.1987
   22PEO   C01214760   0.331   1.889   2.081  0.6423 -0.1918  0.0255
   22PEO   C01314761   0.289   2.037   2.071  0.0823 -1.3893  0.9731
   22PEO   H01414762   0.203   2.048   2.004  0.8454 -1.0252  0.0291
   22PEO   H01514763   0.246   2.077   2.164  2.0629  0.4962  1.1663
   22PEO   O01614764   0.392   2.129   2.029  0.4531  0.0536 -0.5173
   22PEO   H01714765   0.338   2.321   2.117 -2.8248  1.1626 -1.1842
   22PEO   H01814766   0.256   2.267   1.969 -1.1960  0.0299  1.6245
   22PEO   C01914767   0.352   2.265   2.023 -0.2910 -0.4964  0.0706
   22PEO   C01A14768   0.460   2.345   1.946  0.8514  0.2552 -0.5138
   22PEO   H01B14769   0.486   2.297   1.851 -1.6964 -0.3888 -0.9418
   22PEO   H01C14770   0.416   2.445   1.936 -0.6814 -0.4155 -0.7971
   22PEO   O01D14771   0.581   2.342   2.017  0.3022 -0.2722 -0.1184
   22PEO   H01E14772   0.532   2.349   2.224 -0.0482  1.4830  1.4531
   22PEO   H01F14773   0.532   2.501   2.153 -1.2952 -0.3128 -1.2816
   22PEO   C02014774   0.584   2.405   2.145 -0.2086  0.1048  0.3307
   22PEO   C02114775   0.732   2.438   2.173  0.9268 -1.0602 -0.2008
   22PEO   H02214776   0.746   2.466   2.278 -0.5778 -0.0540 -0.2290
   22PEO   H02314777   0.789   2.349   2.144  0.5174 -0.6742 -2.3279
   22PEO   O02414778   0.786   2.543   2.085 -0.2238 -0.5970 -1.1350
   22PEO   H02514779   0.937   2.649   2.002  0.4645  0.3266  1.3702
   22PEO   H02614780   0.982   2.527   2.133  0.3079 -1.2034 -1.6532
   22PEO   C02714781   0.910   2.603   2.098 -0.4122 -0.7585  0.6340
   22PEO   C02814782   0.920   2.720   2.197  1.3358 -0.0330 -0.5090
   22PEO   H02914783   0.999   2.796   2.185  2.0847 -0.6359  0.5297
   22PEO   H02A14784   0.819   2.763   2.184  0.8245 -1.2799 -0.8131
   22PEO   O02B14785   0.943   2.671   2.333  0.2343  0.0362  0.2899
   22PEO   H02C14786   0.836   2.810   2.436 -0.0841  0.9716 -1.1842
   22PEO   H02D14787   1.014   2.831   2.452  0.7604 -1.7940  1.8391
   22PEO   C02E14788   0.933   2.758   2.442 -0.6849 -0.0617  0.1570
   22PEO   C02F14789   0.932   2.664   2.565 -0.0484 -0.0002 -0.3818
   22PEO   H03014790   0.906   2.710   2.662  1.3513 -0.0545  0.0447
   22PEO   H03114791   0.853   2.593   2.538 -1.5301  0.6725  1.9018
   22PEO   O03214792   1.055   2.594   2.578 -0.1427 -0.8467 -0.1079
   22PEO   H03314793   1.029   2.522   2.783 -0.0286 -1.3147  1.3048
   22PEO   H03414794   1.165   2.452   2.691  0.9935  2.0533 -0.0373
   22PEO   C03514795   1.061   2.488   2.683  0.2497  0.2444  0.8291
   22PEO   C03614796   0.962   2.369   2.653 -0.8019 -0.5168 -0.0665
   22PEO   H03714797   0.925   2.335   2.751 -2.3557 -0.0717 -0.4640
   22PEO   H03814798   0.871   2.408   2.606 -0.8264  2.5877  2.2049
   22PEO   O03914799   1.019   2.276   2.567 -0.1701 -0.3269 -0.2618
   22PEO   H03A14800   1.084   2.426   2.427  2.9809 -0.5733 -4.4958
   22PEO   H03B14801   0.954   2.319   2.370  0.1104  0.1303 -0.3575
   22PEO   C03C14802   1.045   2.323   2.432 -0.0326  0.5002 -0.1708
   22PEO   C03D14803   1.165   2.243   2.376 -0.0646 -0.4095  0.0076
   22PEO   H03E14804   1.150   2.135   2.392 -1.9296  0.0205  1.5807
   22PEO   H03F14805   1.160   2.259   2.267 -1.7262 -1.4462 -0.0959
   22PEO   O04014806   1.291   2.288   2.433  0.3903 -0.1208 -0.4124
   22PEO   H04114807   1.426   2.135   2.338  1.8381 -0.0551 -0.1971
   22PEO   H04214808   1.491   2.264   2.436 -0.7167  0.5550  0.3504
   22PEO   C04314809   1.410   2.240   2.366 -0.1824 -0.3790  0.0336
   22PEO   C04414810   1.440   2.325   2.231 -0.9163  0.0074  0.5886
   22PEO   H04514811   1.534   2.289   2.187 -0.2646  0.5366  1.5160
   22PEO   H04614812   1.364   2.314   2.152  1.0813  0.4391 -1.5099
   22PEO   O04714813   1.457   2.469   2.251 -0.2574  0.0910  0.5788
   22PEO   H04814814   1.259   2.513   2.299 -1.9199  1.0571 -3.2694
   22PEO   H04914815   1.310   2.575   2.142  1.5361 -1.9924 -0.4262
   22PEO   C04A14816   1.344   2.557   2.245  0.6530  1.0957  0.5191
   22PEO   C04B14817   1.400   2.697   2.284 -0.0012  0.4347 -0.0390
   22PEO   H04C14818   1.456   2.745   2.203  2.3079  0.2947  1.3819
   22PEO   H04D14819   1.316   2.767   2.301  0.3156  0.1442  3.4996
   22PEO   O04E14820   1.470   2.699   2.408  0.0924 -0.3901 -0.2563
   22PEO   H04F14821   1.480   2.622   2.594  2.1587  0.8670 -0.0014
   22PEO   H05014822   1.339   2.559   2.496  0.1923  1.3740 -1.5800
   22PEO   C05114823   1.404   2.645   2.517  1.1089  0.1772  0.7898
   22PEO   C05214824   1.316   2.760   2.583  0.5068 -0.2901 -0.1336
   22PEO   H05314825   1.254   2.800   2.501  0.5827 -0.7265 -0.4075
   22PEO   H05414826   1.259   2.718   2.666  0.1221 -1.3605 -0.9141
   22PEO   O05514827   1.401   2.871   2.631 -1.0549  0.2894 -0.1188
   22PEO   H05614828   1.412   3.047   2.758  0.0583 -0.6267  1.1137
   22PEO   H05714829   1.293   2.929   2.798  0.1930 -1.7848 -0.4907
   22PEO   C05814830   1.342   2.976   2.711 -0.3236  0.2893  0.2661
   22PEO   C05914831   1.241   3.045   2.622 -0.2042 -0.4209 -0.6202
   22PEO   H05A14832   1.176   2.977   2.566 -0.8868 -0.2877  0.0021
   22PEO   H05B14833   1.177   3.099   2.693  3.1938 -0.2656  2.6597
   22PEO   O05C14834   1.296   3.124   2.519  0.4159 -0.3350  0.2260
   22PEO   H05D14835   1.345   2.978   2.391 -1.1496  0.7944  1.7047
   22PEO   H05E14836   1.491   3.051   2.466  1.1355  0.0955 -0.2479
   22PEO   C05F14837   1.390   3.072   2.427  0.8585  0.3218  0.5721
   22PEO   C06014838   1.403   3.165   2.307  0.1761 -0.7290  0.6338
   22PEO   H06114839   1.473   3.134   2.229  0.7832  0.8063  0.5391
   22PEO   H06214840   1.307   3.173   2.254  0.3905  1.7708  0.5248
   22PEO   O06314841   1.438   3.296   2.356 -0.6135  0.2620 -0.3278
   22PEO   H06414842   1.316   3.384   2.213  0.3929 -1.8332 -1.1090
   22PEO   H06514843   1.487   3.377   2.177  0.8517  3.7582 -0.0556
   22PEO   C06614844   1.416   3.393   2.259 -0.2160 -0.1332 -0.0209
   22PEO   C06714845   1.440   3.533   2.322 -0.6072 -0.2413  0.5191
   22PEO   H06814846   1.352   3.597   2.303 -0.1877  0.0048 -0.6379
   22PEO   H06914847   1.455   3.518   2.430 -2.7264 -1.7796  0.6599
   22PEO   O06A14848   1.560   3.584   2.260 -0.1932  0.6256 -0.3839
   22PEO   H06B14849   1.677   3.426   2.309 -2.8554 -1.5255  1.7405
   22PEO   H06C14850   1.691   3.563   2.426 -0.2767  0.3378 -0.5668
   22PEO   C06D14851   1.683   3.535   2.320  0.0448 -1.3735 -0.1645
   22PEO   C06E14852   1.801   3.605   2.254 -0.6775 -0.3822  0.1613
   22PEO   H06F14853   1.892   3.570   2.306 -0.9048 -2.0665 -0.5017
   22PEO   H07014854   1.804   3.578   2.147 -2.1876 -0.8436  0.2155
   22PEO   O07114855   1.785   3.752   2.277 -0.6391 -0.2857  0.2740
   22PEO   H07214856   1.660   3.782   2.112 -1.4036  1.0897  2.0784
   22PEO   H07314857   1.838   3.815   2.081 -0.5387  4.0423 -0.3603
   22PEO   C07414858   1.754   3.822   2.152 -0.3466  0.3230  0.4619
   22PEO   C07514859   1.729   3.969   2.191  0.5728 -0.2170 -0.3941
   22PEO   H07614860   1.810   4.005   2.257 -0.7352  0.7676  0.7278
   22PEO   H07714861   1.747   4.017   2.094  1.5589  1.0988  0.4008
   22PEO   O07814862   1.601   3.996   2.225  0.0624  0.0158  0.0686
   22PEO   H07914863   1.648   4.038   2.429  0.2684 -1.8171  1.4633
   22PEO   H07A14864   1.564   3.890   2.403  0.4106 -0.9476 -1.8286
   22PEO   C07B14865   1.570   3.994   2.366  0.8378 -0.4053 -0.3185
   22PEO   C07C14866   1.437   4.074   2.391 -0.4136 -0.1497  0.0852
   22PEO   H07D14867   1.432   4.077   2.501  0.9417  0.3147  0.1501
   22PEO   H07E14868   1.454   4.171   2.343  1.6850  0.1462  1.3078
   22PEO   O07F14869   1.319   4.015   2.349  1.0229  0.3100  0.0860
   22PEO   H08014870   1.330   3.932   2.170 -1.3127 -0.6974 -0.2502
   22PEO   H08114871   1.332   4.114   2.167 -0.2351  1.8210  2.1786
   22PEO   C08214872   1.290   4.024   2.215  0.8432  0.1068  0.1017
   22PEO   C08314873   1.138   4.019   2.192 -0.0923 -0.1977 -0.3695
   22PEO   H08414874   1.085   4.060   2.280 -0.2813 -3.0878  0.9996
   22PEO   H08514875   1.112   4.093   2.115 -3.3967 -0.4192  0.3852
   22PEO   O08614876   1.096   3.882   2.158 -0.0234  0.0258 -0.3583
   22PEO   H08714877   1.168   3.856   1.960  1.1265 -2.7787  1.6258
   22PEO   H08814878   0.989   3.913   1.991 -0.6877  0.3573  2.1654
   22PEO   C08914879   1.076   3.853   2.020 -0.1859 -0.0742 -0.0188
   22PEO   C08A14880   1.025   3.704   2.013  0.1283 -0.5692  0.0841
   22PEO   H08B14881   1.026   3.666   1.910 -1.6755  1.4802 -0.7869
   22PEO   H08C14882   1.087   3.634   2.071  0.4929 -0.5789 -0.3190
   22PEO   O08D14883   0.895   3.696   2.068  0.4082  1.0201  0.0974
   22PEO   H08E14884   0.909   3.491   2.089  0.5098  0.9630  1.2421
   22PEO   H08F14885   0.791   3.558   1.962  0.5805 -0.7191 -0.8188
   22PEO   C09014886   0.831   3.565   2.064 -0.1601 -0.2645 -0.5511
   22PEO   C09114887   0.718   3.566   2.169 -0.6812 -0.4514 -0.5163
   22PEO   H09214888   0.692   3.471   2.217 -0.0418 -0.7499 -0.7442
   22PEO   H09314889   0.749   3.632   2.251  0.2325 -1.2209 -0.2268
   22PEO   O09414890   0.589   3.602   2.124  0.0484  0.2991  0.1022
   22PEO   H09514891   0.509   3.770   2.221 -0.1867  0.5900  1.4743
   22PEO   H09614892   0.515   3.638   2.332 -3.6435 -0.1383  0.2527
   22PEO   C09714893   0.498   3.661   2.226  0.0346  0.4564 -0.3381
   22PEO   C09814894   0.354   3.622   2.190  0.1078  0.6845 -0.1440
   22PEO   H09914895   0.297   3.691   2.254  0.4994 -0.4221  1.4726
   22PEO   H09A14896   0.336   3.641   2.083  2.4626  2.8947 -0.2438
   22PEO   O09B14897   0.339   3.478   2.225 -0.4444  0.1542  0.2579
   22PEO   H09C14898   0.461   3.417   2.067 -0.0565  1.4760  0.6742
   22PEO   H09D14899   0.298   3.376   2.045  1.2493  0.8675 -0.7168
   22PEO   C09E14900   0.375   3.381   2.125  0.3436 -0.2247  0.2556
   22PEO   C09F14901   0.388   3.240   2.185  0.1591 -0.3425 -0.4136
   22PEO   H0A014902   0.425   3.186   2.096  2.6600  3.3820 -1.8656
   22PEO   H0A114903   0.468   3.236   2.260  0.8306  2.3470 -0.8736
   22PEO   O0A214904   0.259   3.192   2.225  0.2663  0.7673 -0.3914
   22PEO   H0A314905   0.320   3.093   2.388 -1.0299 -2.8629  2.0088
   22PEO   H0A414906   0.257   2.987   2.243  1.7202  1.5589 -2.0025
   22PEO   C0A514907   0.249   3.077   2.306  0.0415 -0.1596  0.4213
   22PEO   C0A614908   0.105   3.066   2.368 -0.2201  0.4630  0.6266
   22PEO   H0A714909   0.030   3.058   2.288 -2.4164  3.9105  2.0514
   22PEO   H0A814910   0.109   2.974   2.428  1.6338 -0.6406 -1.0935
   22PEO   O0A914911   0.082   3.182   2.450 -1.0711  0.0035 -0.0354
   22PEO   H0AA14912  -0.089   3.139   2.565 -1.8181  0.4704 -1.1656
   22PEO   H0AB14913  -0.116   3.206   2.409 -0.3278 -0.6040 -0.1252
   22PEO   C0AC14914  -0.046   3.210   2.493 -0.2894  0.5740 -0.1966
   22PEO   C0AD14915  -0.052   3.352   2.554  0.9875  0.2486 -0.2173
   22PEO   H0AE14916  -0.122   3.346   2.639 -1.1358  0.1108 -1.9168
   22PEO   H0AF14917   0.044   3.391   2.591  1.7672 -1.2654 -0.5617
   22PEO   O0B014918  -0.110   3.442   2.451 -0.3509  0.4358 -0.5555
   22PEO   H0B114919   0.014   3.390   2.280  0.0868 -0.4296 -0.3038
   22PEO   H0B214920   0.078   3.509   2.401  1.0360 -0.9391 -1.5574
   22PEO   C0B314921  -0.011   3.475   2.346  0.1681 -0.0657 -0.7394
   22PEO   C0B414922  -0.067   3.598   2.264  0.9079 -0.3117 -0.2125
   22PEO   H0B514923  -0.064   3.691   2.322 -0.0780  0.4104 -1.2818
   22PEO   H0B614924   0.015   3.602   2.190  0.5520 -0.9756 -0.6535
   22PEO   O0B714925  -0.197   3.578   2.201 -0.4413 -0.2615  0.1532
   22PEO   H0B814926  -0.157   3.687   2.029 -2.0125 -2.0084 -2.1007
   22PEO   H0B914927  -0.247   3.785   2.153  0.9852  1.3515 -2.5720
   22PEO   C0BA14928  -0.231   3.685   2.110  0.6816 -0.2107  0.6286
   22PEO   C0BB14929  -0.363   3.639   2.042 -0.0031  0.3760 -0.3706
   22PEO   H0BC14930  -0.440   3.610   2.115  0.3283  1.9715  0.6454
   22PEO   H0BD14931  -0.399   3.714   1.970  0.4865  0.4582 -0.5340
   22PEO   O0BE14932  -0.320   3.528   1.964 -0.8109 -0.1055 -0.1552
   22PEO   H0BF14933  -0.527   3.469   1.940  0.6549 -0.9462  2.2055
   22PEO   H0C014934  -0.400   3.346   1.915  2.2862  0.2862 -2.1285
   22PEO   C0C114935  -0.425   3.452   1.902  0.0651  0.1160 -0.0061
   22PEO   C0C214936  -0.428   3.478   1.754 -0.4189  0.1632  0.4236
   22PEO   H0C314937  -0.328   3.470   1.708  0.1107 -0.2217  1.6125
   22PEO   H0C414938  -0.502   3.412   1.708  0.2650 -1.0082  0.9743
   22PEO   O0C514939  -0.468   3.616   1.730 -0.4821  0.0243 -0.0438
   22PEO   H0C614940  -0.465   3.586   1.523 -2.4436 -1.0305  1.5430
   22PEO   H0C714941  -0.332   3.687   1.578  0.3087 -1.1316  1.0611
   22PEO   C0C814942  -0.437   3.663   1.597  0.1411 -0.8565  0.4965
   22PEO   C0C914943  -0.523   3.792   1.567  0.3401  0.9732  0.7096
   22PEO   H0CA14944  -0.510   3.855   1.656  1.4129  0.1689  1.1421
   22PEO   H0CB14945  -0.490   3.841   1.474 -0.0150  0.4616  0.3054
   22PEO   O0CC14946  -0.665   3.774   1.555  0.4802 -0.2559 -1.0922
   22PEO   H0CD14947  -0.696   3.972   1.490  4.3234  0.4228  1.2188
   22PEO   H0CE14948  -0.695   3.947   1.657  3.5429 -0.0987 -1.7757
   22PEO   C0CF14949  -0.730   3.899   1.565  0.0315  0.1305 -0.7196
   22PEO   C0D014950  -0.887   3.881   1.551 -0.8726 -0.3293  0.2828
   22PEO   H0D114951  -0.931   3.795   1.604 -0.1327 -0.5409  0.5612
   22PEO   H0D214952  -0.940   3.969   1.590 -1.3271 -0.8171  0.7872
   22PEO   O0D314953  -0.921   3.880   1.407  0.4099  0.3588  0.4642
   22PEO   H0D414954  -1.117   3.859   1.454 -1.2130 -1.8873 -1.7545
   22PEO   H0D514955  -1.078   3.836   1.281  3.6714 -0.8888 -1.1178
   22PEO   C0D614956  -1.058   3.898   1.369  0.1432 -0.6927 -0.3189
   22PEO   C0D714957  -1.089   4.044   1.328 -0.2329  0.1020  0.1915
   22PEO   H0D814958  -1.038   4.085   1.240 -1.5606 -1.9841 -1.6378
   22PEO   H0D914959  -1.198   4.045   1.314 -0.3223 -1.7675  0.4335
   22PEO   O0DA14960  -1.060   4.122   1.444  0.4699  0.4034 -0.9427
   22PEO   H0DB14961  -0.991   4.287   1.326  0.5747  1.4745  0.3843
   22PEO   H0DC14962  -0.876   4.190   1.426 -0.0672 -0.4029  0.2575
   22PEO   C0DD14963  -0.976   4.235   1.423 -0.0646 -0.4424 -0.4874
   22PEO   C0DE14964  -0.969   4.332   1.538 -0.3804  0.6558 -0.4117
   22PEO   H0DF14965  -0.912   4.421   1.507  0.9291  0.6397  1.7744
   22PEO   H0E014966  -1.070   4.354   1.573  0.3998  2.3862  0.9175
   22PEO   O0E114967  -0.884   4.277   1.640 -0.0499  0.0861  0.4037
   22PEO   H0E214968  -1.000   4.379   1.765 -0.6395  0.4782 -1.5423
   22PEO   H0E314969  -0.849   4.466   1.710  0.2514  0.6827  0.1463
   22PEO   C0E414970  -0.892   4.371   1.745 -0.2329  0.9445  0.2875
   22PEO   C0E514971  -0.809   4.309   1.864  0.2008 -0.6073  0.1129
   22PEO   H0E614972  -0.852   4.353   1.955  2.0368 -0.6992  1.0703
   22PEO   H0E714973  -0.813   4.199   1.862  1.9482 -0.6912 -0.0930
   22PEO   O0E814974  -0.673   4.347   1.864  0.1222  0.2107  0.2168
   22PEO   H0E914975  -0.632   4.257   1.685 -1.0619  0.4896  0.2390
   22PEO   H0EA14976  -0.584   4.172   1.828 -2.7589  1.0841  1.5838
   22PEO   C0EB14977  -0.588   4.273   1.784  0.6729  0.4816 -0.5061
   22PEO   C0EC14978  -0.449   4.338   1.786  0.1260  1.3054  0.0173
   22PEO   H0ED14979  -0.422   4.379   1.884  4.9912 -0.6590 -0.2003
   22PEO   H0EE14980  -0.371   4.261   1.769 -0.1521  1.0269  0.0020
   22PEO   O0EF14981  -0.441   4.440   1.681  0.4856 -0.4439 -0.2192
   22PEO   H0F014982  -0.229   4.422   1.682 -1.4527 -2.2589  2.4042
   22PEO   H0F114983  -0.284   4.570   1.762 -0.4808 -0.5581  0.1275
   22PEO   C0F214984  -0.309   4.497   1.684 -0.0354 -0.5404 -0.0369
   22PEO   C0F314985  -0.282   4.575   1.551 -0.2226  0.6179 -0.3625
   22PEO   H0F414986  -0.176   4.603   1.542  0.8338 -3.4497 -3.9376
   22PEO   H0F514987  -0.295   4.507   1.466 -2.8645 -0.5457  0.8845
   22PEO   O0F614988  -0.365   4.693   1.559 -0.0242  0.4285  0.5237
   22PEO   H0F714989  -0.443   4.689   1.363 -0.0543 -0.2893  1.0976
   22PEO   H0F814990  -0.287   4.783   1.376 -1.1079  1.4881 -3.2068
   22PEO   C0F914991  -0.380   4.753   1.426  0.7226  0.3315 -0.2504
   22PEO   C0FA14992  -0.464   4.883   1.448  0.5558  0.4754 -0.7261
   22PEO   H0FB14993  -0.508   4.920   1.354 -0.2470 -0.4422 -0.7222
   22PEO   H0FC14994  -0.558   4.871   1.504  0.9599  0.2696 -0.0794
   22PEO   O0FD14995  -0.389   4.986   1.510 -0.4536 -0.1247 -0.4021
   22PEO   H0FE14996  -0.266   4.880   1.633 -2.7846 -3.4195  2.8746
   22PEO   H0FF14997  -0.406   4.949   1.720  1.0679 -0.2577  0.7494
   22PEO   C10014998  -0.331   4.968   1.642  0.5781 -0.3967  0.2378
   22PEO   C10114999  -0.250   5.094   1.671 -0.7280 -0.1602  0.4616
   22PEO   H10215000  -0.162   5.095   1.737  0.4561  2.8474 -0.9650
   22PEO   H10315001  -0.217   5.125   1.570  0.3785 -0.8758  0.5740
   22PEO   O10415002  -0.340   5.200   1.719  0.7488  0.0722 -0.3080
   22PEO   H10515003  -0.181   5.333   1.692  1.0426 -2.0841  1.5194
   22PEO   H10615004  -0.218   5.289   1.855  1.8299  0.7749 -0.3323
   22PEO   C10715005  -0.265   5.315   1.760 -0.3172 -0.3365  0.3716
   22PEO   C10815006  -0.360   5.438   1.778 -0.0499 -0.2356 -0.2465
   22PEO   H10915007  -0.298   5.514   1.829 -0.9404  0.0209  0.4799
   22PEO   H10A15008  -0.377   5.477   1.676  1.9890  1.3026 -0.0773
   22PEO   O10B15009  -0.465   5.414   1.873  0.3938 -0.5536 -0.1236
   22PEO   H10C15010  -0.597   5.552   1.801 -0.2585 -2.1648 -0.3345
   22PEO   H10D15011  -0.477   5.615   1.929 -0.0783 -1.1488  1.8009
   22PEO   C10E15012  -0.542   5.533   1.894 -0.5761 -0.1614  0.2986
   22PEO   C10F15013  -0.650   5.496   1.995 -0.7225 -0.1986  0.8669
   22PEO   H11015014  -0.723   5.578   1.993  3.6337  4.2417  2.9601
   22PEO   H11115015  -0.698   5.405   1.954 -1.5477  0.4591  0.3486
   22PEO   O11215016  -0.597   5.477   2.128  0.0301  0.2029 -0.8179
   22PEO   H11315017  -0.669   5.661   2.178  1.2445  0.1824 -1.0220
   22PEO   H11415018  -0.490   5.655   2.154  0.9349 -0.1831 -2.5850
   22PEO   C11515019  -0.578   5.601   2.193  1.3322  0.3718 -0.8000
   22PEO   C11615020  -0.551   5.572   2.338  0.9350  0.3436  0.4709
   22PEO   H11715021  -0.483   5.485   2.337 -0.2524 -0.6267  1.2329
   22PEO   H11815022  -0.510   5.657   2.395  1.9156  0.4796 -0.4042
   22PEO   O11915023  -0.686   5.528   2.394  0.3033 -0.7256 -0.0056
   22PEO   H11A15024  -0.594   5.534   2.588 -0.2639 -1.3142  0.9973
   22PEO   H11B15025  -0.617   5.373   2.530  2.2068  0.4648  4.0192
   22PEO   C11C15026  -0.660   5.473   2.525 -0.0117 -0.4919 -0.0859
   22PEO   C11D15027  -0.792   5.464   2.610 -0.1848 -0.2908  0.3378
   22PEO   H11E15028  -0.789   5.396   2.697 -0.0168  1.1766  1.5117
   22PEO   H11F15029  -0.833   5.559   2.646 -0.6341 -0.3316 -0.0522
   22PEO   O12015030  -0.899   5.391   2.541 -0.0285 -0.2907 -0.7567
   22PEO   H12115031  -0.926   5.463   2.343 -0.4811 -0.6002 -0.3058
   22PEO   H12215032  -1.002   5.566   2.487 -1.1735 -0.2946  0.6482
   22PEO   C12315033  -0.970   5.470   2.444  0.1930  0.4514 -0.0698
   22PEO   C12415034  -1.103   5.403   2.431  0.3139  0.2225 -0.2697
   22PEO   H12515035  -1.141   5.356   2.522  1.7331 -2.0100 -0.7503
   22PEO   H12615036  -1.174   5.484   2.406  0.2642 -0.4329 -2.5213
   22PEO   O12715037  -1.105   5.296   2.336  0.1741 -0.4057 -0.5042
   22PEO   H12815038  -1.280   5.371   2.241  0.0292 -1.1470 -2.7508
   22PEO   H12915039  -1.304   5.256   2.381 -2.1662  2.7024 -1.0732
   22PEO   C12A15040  -1.244   5.281   2.293 -0.0589  0.0327 -0.5308
   22PEO   C12B15041  -1.253   5.163   2.192 -0.3589 -0.6903 -0.9619
   22PEO   H12C15042  -1.215   5.072   2.241 -2.7788 -1.0510  0.4043
   22PEO   H12D15043  -1.363   5.166   2.192 -0.3617  2.0382 -2.0068
   22PEO   O12E15044  -1.200   5.192   2.066 -1.3073 -0.3177 -0.3488
   22PEO   H12F15045  -1.354   5.126   1.945 -0.8134  1.9500  0.4961
   22PEO   H13015046  -1.243   5.007   1.952 -2.3376 -0.6351  0.9913
   22PEO   C13115047  -1.245   5.117   1.957 -0.8533 -0.5034 -0.4634
   22PEO   C13215048  -1.187   5.173   1.824  0.1945  0.3636 -0.4972
   22PEO   H13315049  -1.250   5.133   1.742 -0.2444 -1.0119  0.4751
   22PEO   H13415050  -1.184   5.282   1.834 -1.1075  0.3221  0.7163
   22PEO   O13515051  -1.061   5.122   1.804  0.2449 -0.1774  0.5470
   22PEO   H13615052  -0.957   5.180   1.980  0.0530 -0.2597 -0.3343
   22PEO   H13715053  -0.981   5.305   1.852 -2.8017 -0.7258 -0.2902
   22PEO   C13815054  -0.964   5.198   1.872  0.3755 -0.3327 -0.3691
   22PEO   C13915055  -0.831   5.155   1.803 -0.3623  0.4134 -0.8527
   22PEO   H13A15056  -0.843   5.163   1.694 -2.3729  0.9847 -0.6306
   22PEO   H13B15057  -0.755   5.219   1.850 -2.2504  2.7486 -0.8481
   22PEO   O13C15058  -0.809   5.010   1.829 -0.7248  0.0065 -0.1122
   22PEO   H13D15059  -0.596   5.030   1.767  2.3515 -0.4780 -0.3603
   22PEO   H13E15060  -0.720   5.001   1.644 -0.9325  2.9193  1.1766
   22PEO   C13F15061  -0.690   4.976   1.747  1.2504  1.1495  0.2183
   22PEO   C14015062  -0.658   4.829   1.758  0.4160 -0.4051  0.4441
   22PEO   H14115063  -0.738   4.775   1.705  0.3718 -0.4823  0.5898
   22PEO   H14215064  -0.556   4.816   1.719  0.4780  1.0507  0.0586
   22PEO   O14315065  -0.652   4.798   1.898 -0.2345  0.1311 -0.4034
   22PEO   H14415066  -0.520   4.644   1.866  1.0148  1.6822 -0.2194
   22PEO   H14515067  -0.705   4.603   1.864 -1.5726  2.2706  2.1488
   22PEO   C14615068  -0.621   4.660   1.907  0.9512  0.1891  0.2582
   22PEO   C14715069  -0.607   4.619   2.055 -1.1924 -0.7712  0.0407
   22PEO   H14815070  -0.695   4.645   2.116 -1.1682  2.8771 -1.2754
   22PEO   H14915071  -0.581   4.512   2.061  0.2475 -0.5668 -1.9062
   22PEO   O14A15072  -0.506   4.700   2.129 -1.0043 -0.6553  0.1878
   22PEO   H14B15073  -0.358   4.602   2.030 -3.9020 -0.2814 -1.5470
   22PEO   H14C15074  -0.301   4.702   2.166 -0.9450 -2.0386  0.7977
   22PEO   C14D15075  -0.371   4.698   2.082 -0.5533 -0.6850  0.3865
   22PEO   C14E15076  -0.339   4.816   1.990  0.4156  0.3973  0.7201
   22PEO   H14F15077  -0.301   4.764   1.900 -1.8692  0.1151 -0.1504
   22PEO   H15015078  -0.421   4.880   1.956  1.6900  1.7171  0.0221
   22PEO   O15115079  -0.242   4.896   2.051 -0.0934 -0.3271  0.3012
   22PEO   H15215080  -0.367   5.067   2.094  0.4889  2.1444 -0.0583
   22PEO   H15315081  -0.251   5.089   1.961  1.4836 -2.6828 -0.4108
   22PEO   C15415082  -0.266   5.041   2.059  0.4795  0.4514  1.0969
   22PEO   C15515083  -0.164   5.099   2.152  0.0831 -0.0763 -0.0690
   22PEO   H15615084  -0.066   5.051   2.136 -0.8220 -1.0893 -3.1614
   22PEO   H15715085  -0.163   5.207   2.129  1.5544  0.1008  0.6980
   22PEO   O15815086  -0.225   5.078   2.283  0.2864 -0.4321  0.4388
   22PEO   H15915087  -0.132   5.249   2.354  1.1598  0.2833  1.8706
   22PEO   H15A15088  -0.068   5.080   2.408 -0.9142 -1.3281  0.3340
   22PEO   C15B15089  -0.153   5.146   2.385  0.0854 -0.1794 -0.2017
   22PEO   C15C15090  -0.231   5.158   2.522  0.6891 -0.2731 -0.6153
   22PEO   H15D15091  -0.184   5.238   2.580  1.9411 -1.1310 -0.4200
   22PEO   H15E15092  -0.335   5.189   2.500 -0.1250 -2.3967 -0.0324
   22PEO   O15F15093  -0.233   5.025   2.581 -0.1307 -0.6531 -0.2481
   22PEO   H16015094  -0.219   4.885   2.416 -0.1827 -0.1587  0.6581
   22PEO   H16115095  -0.374   4.901   2.505 -0.3141 -0.0264  0.9902
   22PEO   C16215096  -0.265   4.901   2.515 -0.2801 -0.4690  0.6657
   22PEO   C16315097  -0.216   4.793   2.602 -0.2274  0.5251  0.0344
   22PEO   H16415098  -0.225   4.691   2.560 -2.0933  0.6899 -0.0519
   22PEO   H16515099  -0.112   4.816   2.629 -0.5452  2.6565 -0.4175
   22PEO   O16615100  -0.305   4.791   2.714  0.4858  0.0552 -0.8086
   22PEO   H16715101  -0.184   4.722   2.887 -1.5511 -2.8717  2.0871
   22PEO   H16815102  -0.254   4.592   2.785  0.4961 -0.6505  0.9796
   22PEO   C16915103  -0.272   4.692   2.828 -0.7993 -0.0996 -0.7294
   22PEO   C16A15104  -0.385   4.691   2.928  0.1824 -0.1260 -0.0751
   22PEO   H16B15105  -0.345   4.660   3.025  1.0954 -1.8784 -0.9628
   22PEO   H16C15106  -0.437   4.786   2.944 -0.6081 -0.6647  0.6407
   22PEO   O16D15107  -0.483   4.583   2.889 -0.6141 -0.3559 -0.1530
   22PEO   H16E15108  -0.505   4.547   3.100 -1.4714 -0.4890  1.4993
   22PEO   H16F15109  -0.588   4.431   2.989 -0.4531  0.4803  2.6320
   22PEO   C17015110  -0.557   4.535   3.003 -0.1452  0.6959  0.6087
   22PEO   C17115111  -0.682   4.616   3.022  0.4678 -0.4366 -0.7031
   22PEO   H17215112  -0.740   4.633   2.930 -1.4046 -1.6767  0.1844
   22PEO   H17315113  -0.738   4.572   3.106  2.4841 -0.9427  0.4512
   22PEO   O17415114  -0.655   4.739   3.083 -0.4480  0.3481 -0.5785
   22PEO   H17515115  -0.844   4.781   3.125  0.6016  0.3877  0.4132
   22PEO   H17615116  -0.780   4.844   2.966  1.6372  1.8977 -0.1743
   22PEO   C17715117  -0.761   4.832   3.074  0.3361  0.3347 -0.0807
   22PEO   C17815118  -0.729   4.960   3.149  0.0687 -0.4582 -0.7882
   22PEO   H17915119  -0.653   5.012   3.089 -0.2396 -0.8500 -1.5292
   22PEO   H17A15120  -0.822   5.019   3.146  0.8140  0.7403 -2.2213
   22PEO   O17B15121  -0.682   4.946   3.289  0.0977  1.0447  0.5506
   22PEO   H17C15122  -0.719   5.150   3.311 -1.0178  0.2132 -0.9975
   22PEO   H17D15123  -0.546   5.097   3.311  1.4970 -0.3928  3.0284
   22PEO   C17E15124  -0.648   5.072   3.344 -0.0971  1.4054 -0.0531
   22PEO   C17F15125  -0.635   5.048   3.499 -0.3328 -0.3691 -0.2247
   22PEO   H18015126  -0.544   4.994   3.529  0.1317 -0.1647 -1.2168
   22PEO   H18115127  -0.608   5.145   3.542  1.4157 -0.8506 -0.1559
   22PEO   O18215128  -0.756   5.005   3.552 -0.3380  0.8154 -0.4687
   22PEO   H18315129  -0.855   5.175   3.488 -2.2578 -0.2890 -1.1478
   22PEO   H18415130  -0.896   5.115   3.654 -0.0502 -0.0109 -0.7885
   22PEO   C18515131  -0.868   5.086   3.551  0.6113 -0.3584 -0.5149
   22PEO   C18615132  -0.982   4.992   3.500 -0.3598  0.0159 -1.1221
   22PEO   H18715133  -0.977   4.889   3.536 -0.0589  0.3126 -0.2943
   22PEO   H18815134  -1.075   5.030   3.544 -0.0928  1.9148 -2.0770
   22PEO   O18915135  -0.997   4.989   3.356 -0.5271  0.1439  0.1107
   22PEO   H18A15136  -1.201   5.032   3.321 -1.7985  0.2690  4.4232
   22PEO   H18B15137  -1.167   4.879   3.407 -0.8419 -0.9510 -0.2597
   22PEO   C18C15138  -1.134   4.945   3.325 -1.3118  0.2692  0.4992
   22PEO   C18D15139  -1.125   4.873   3.187 -0.7987  0.2919  0.2822
   22PEO   H18E15140  -1.051   4.792   3.199 -2.2136 -1.3897 -1.5952
   22PEO   H18F15141  -1.222   4.822   3.179 -0.6751 -0.0304  0.7811
   22PEO   O19015142  -1.097   4.959   3.078  1.0876 -0.3232 -0.7998
   22PEO   H19115143  -1.178   4.848   2.924 -1.2238  0.3628  0.7869
   22PEO   H19215144  -0.998   4.816   2.944 -0.2697  0.8030  0.2124
   22PEO   C19315145  -1.079   4.890   2.948 -0.8616  0.1962 -0.3695
   22PEO   C19415146  -1.044   4.999   2.849  0.6243 -0.0407  0.0292
   22PEO   H19515147  -1.055   4.958   2.748 -3.2587  0.6115  0.0275
   22PEO   H19615148  -1.118   5.080   2.858  0.3304 -0.4456  1.5754
   22PEO   O19715149  -0.914   5.045   2.876  0.0595  0.4373 -0.1680
   22PEO   H19815150  -0.906   5.244   2.825 -2.1561 -0.1712 -1.4981
   22PEO   H19915151  -0.889   5.119   2.688  0.3731  4.5172 -1.1065
   22PEO   C19A15152  -0.867   5.147   2.792 -0.3839 -0.2533  0.5652
   22PEO   C19B15153  -0.714   5.143   2.813  0.3694 -0.7757 -0.1015
   22PEO   H19C15154  -0.665   5.208   2.739  0.4190 -1.6122 -0.8221
   22PEO   H19D15155  -0.692   5.171   2.917  2.9137 -1.4456 -0.4016
   22PEO   O19E15156  -0.662   5.007   2.801 -0.2726  0.3388 -0.2924
   22PEO   H19F15157  -0.505   5.024   2.645 -0.1871 -3.1180 -1.7430
   22PEO   H1A015158  -0.504   4.887   2.767 -1.3478  0.5520  2.5335
   22PEO   C1A115159  -0.523   4.994   2.750 -1.0696  0.1536 -0.8513
   22PEO   C1A215160  -0.436   5.062   2.852 -0.2859  0.1976 -0.1190
   22PEO   H1A315161  -0.476   5.043   2.953  0.1689 -0.5319 -0.0674
   22PEO   H1A415162  -0.333   5.024   2.838 -0.1006  0.8990 -0.7351
   22PEO   O1A515163  -0.417   5.205   2.822 -0.4508  0.3228  0.1570
   22PEO   H1A615164  -0.213   5.230   2.830 -0.5832 -0.5159 -0.2075
   22PEO   H1A715165  -0.290   5.241   2.989 -0.7193  0.1359  0.1280
   22PEO   C1A815166  -0.303   5.267   2.883 -0.4943 -0.5071 -0.0623
   22PEO   C1A915167  -0.312   5.418   2.859 -0.2279 -0.4337  0.5542
   22PEO   H1AA15168  -0.217   5.471   2.844 -0.5724 -0.3435 -1.5784
   22PEO   H1AB15169  -0.352   5.434   2.758  0.7593  1.0216  0.3646
   22PEO   O1AC15170  -0.390   5.493   2.954  0.1196  0.3059  0.2805
   22PEO   H1AD15171  -0.509   5.341   3.024 -0.4588 -0.0993 -1.5171
   22PEO   H1AE15172  -0.577   5.422   2.898 -0.5817  0.1983 -0.6231
   22PEO   C1AF15173  -0.516   5.444   2.987 -0.6309  0.2268 -0.5962
   22PEO   C1B015174  -0.582   5.549   3.084 -0.3096  0.2683  0.6796
   22PEO   H1B115175  -0.649   5.488   3.146  0.5184 -0.0310  1.2900
   22PEO   H1B215176  -0.504   5.606   3.136  0.6931 -1.2728  0.8986
   22PEO   O1B315177  -0.654   5.645   3.011  0.3269 -0.2104  0.1549
   22PEO   H1B415178  -0.508   5.699   2.866  2.2520 -0.7018  2.3441
   22PEO   H1B515179  -0.508   5.792   3.003  0.0188 -1.1445  0.9298
   22PEO   C1B615180  -0.580   5.745   2.935  0.1350  0.7045 -0.5692
   22PEO   C1B715181  -0.686   5.843   2.865 -0.0463 -0.1794  0.2920
   22PEO   H1B815182  -0.778   5.852   2.923  0.5156  1.2404  1.0193
   22PEO   H1B915183  -0.649   5.945   2.847  2.8758 -1.3206 -0.8055
   22PEO   O1BA15184  -0.720   5.782   2.737 -0.4039  0.5321  0.1202
   22PEO   H1BB15185  -0.803   5.800   2.545 -1.2311 -2.0607  1.1764
   22PEO   H1BC15186  -0.740   5.954   2.621  0.6216  0.5036  2.1559
   22PEO   C1BD15187  -0.789   5.857   2.638 -0.1122  0.3550 -0.3690
   22PEO   C1BE15188  -0.932   5.894   2.684 -0.1492  0.4422 -0.4311
   22PEO   H1BF15189  -0.967   5.951   2.597  0.7509 -2.6245 -2.9822
   22PEO   H1C015190  -0.987   5.800   2.696  1.6255 -0.7428 -1.2060
   22PEO   O1C115191  -0.938   5.978   2.802  0.0140  0.7483 -0.0995
   22PEO   H1C215192  -1.141   5.932   2.859 -0.8752  0.8550 -0.8204
   22PEO   H1C315193  -1.115   6.073   2.741  0.4648 -1.2397 -1.5356
   22PEO   C1C415194  -1.080   6.018   2.830  0.1582  0.2594 -0.4409
   22PEO   C1C515195  -1.070   6.117   2.951 -0.3164 -0.5779 -0.0506
   22PEO   H1C615196  -1.004   6.201   2.924  0.9783 -2.1186 -1.9971
   22PEO   H1C715197  -1.173   6.155   2.960 -0.7834 -0.7448 -3.4666
   22PEO   O1C815198  -1.029   6.044   3.068  0.5734 -0.2987 -0.4873
   22PEO   H1C915199  -1.090   6.199   3.188  0.8210  1.4883  1.9046
   22PEO   H1CA15200  -0.917   6.182   3.156  1.4277 -1.5584  1.0530
   22PEO   C1CB15201  -1.009   6.126   3.175 -0.0940  0.6578  0.5647
   22PEO   C1CC15202  -0.993   6.050   3.305  0.5248  0.9345 -0.7546
   22PEO   H1CD15203  -0.995   6.113   3.396 -0.2038  2.2141 -1.6262
   22PEO   H1CE15204  -1.078   5.982   3.316 -0.7709  2.1428 -2.6863
   22PEO   O1CF15205  -0.880   5.965   3.319 -0.6147  0.2265  0.4842
   22PEO   H1D015206  -0.862   5.868   3.135 -0.5486 -0.2419 -0.0998
   22PEO   H1D115207  -0.998   5.816   3.226  1.4372  0.7497 -0.0755
   22PEO   C1D215208  -0.893   5.845   3.238  1.3735  0.6615  0.7420
   22PEO   C1D315209  -0.810   5.738   3.302 -0.6195 -0.3214  0.3524
   22PEO   H1D415210  -0.778   5.667   3.224  0.6656 -0.7266  1.2149
   22PEO   H1D515211  -0.715   5.785   3.331 -1.0562 -0.0830  1.4235
   22PEO   O1D615212  -0.877   5.680   3.411 -0.4916 -0.5182  0.1020
   22PEO   H1D715213  -0.820   5.612   3.598  0.9944 -0.3178  0.2086
   22PEO   H1D815214  -0.705   5.585   3.466 -0.3622  0.7853 -1.8957
   22PEO   C1D915215  -0.812   5.588   3.491  0.0317 -0.4425  0.1556
   22PEO   C1DA15216  -0.887   5.446   3.470  0.5615 -0.0433 -0.2817
   22PEO   H1DB15217  -0.840   5.381   3.545 -0.3421 -0.8014 -0.3454
   22PEO   H1DC15218  -0.995   5.457   3.488  0.3892 -1.0611 -0.6117
   22PEO   O1DD15219  -0.866   5.397   3.339 -0.6541  0.3817  0.7102
   22PEO   H1DE15220  -1.080   5.383   3.294  0.4149  1.3669 -0.6559
   22PEO   H1DF15221  -0.994   5.237   3.354  0.2049 -0.3635 -0.7211
   22PEO   C1E015222  -0.986   5.327   3.290 -0.4840 -0.2114 -0.6086
   22PEO   C1E115223  -0.958   5.284   3.145  0.3570 -0.1409 -0.3019
   22PEO   H1E215224  -0.851   5.277   3.121  0.3289  0.4037 -0.6042
   22PEO   H1E315225  -1.008   5.188   3.126 -1.3940  0.6582  0.1317
   22PEO   O1E415226  -1.012   5.389   3.054  0.2860  0.3801  0.1206
   22PEO   H1E515227  -0.841   5.468   3.005  1.1602  1.2289  1.6929
   22PEO   H1E615228  -0.926   5.546   3.151 -0.4311  1.4007 -0.2409
   22PEO   C1E715229  -0.935   5.504   3.050 -0.1728 -0.6047  0.5060
   22PEO   C1E815230  -1.008   5.610   2.963 -0.1530  0.1231  0.5910
   22PEO   H1E915231  -0.938   5.683   2.919  0.5853 -0.3751  0.9208
   22PEO   H1EA15232  -1.065   5.581   2.873  0.8245  0.3803 -0.1265
   22PEO   O1EB15233  -1.095   5.674   3.057  0.0735  0.1331  0.3669
   22PEO   H1EC15234  -1.250   5.542   3.071  0.2788  0.6348 -0.2466
   22PEO   H1ED15235  -1.268   5.673   2.944 -0.6649 -2.7566 -1.5779
   22PEO   C1EE15236  -1.228   5.647   3.043  0.4779  0.3746 -1.0986
   22PEO   C1EF15237  -1.307   5.733   3.150 -0.4475  0.0086 -0.3816
   22PEO   H1F015238  -1.255   5.828   3.169  0.1887 -0.3491 -0.3121
   22PEO   H1F115239  -1.411   5.748   3.118  0.0068  0.5971 -1.6495
   22PEO   O1F215240  -1.314   5.667   3.280 -0.3230  0.0526 -0.0956
   22PEO   H1F315241  -1.163   5.778   3.378  0.5866 -0.4593 -0.5830
   22PEO   H1F415242  -1.120   5.626   3.300  1.0091 -0.9069  0.5080
   22PEO   C1F515243  -1.198   5.675   3.359  0.5908 -0.5027 -0.3608
   22PEO   C1F615244  -1.217   5.605   3.496  0.2714 -0.7070  0.4453
   22PEO   H1F715245  -1.253   5.505   3.469 -2.2517 -0.1374  1.3504
   22PEO   H1F815246  -1.122   5.609   3.551 -1.3096  3.5360  3.5106
   22PEO   O1F915247  -1.326   5.674   3.563  0.4200  0.3327 -0.7278
   22PEO   H1FA15248  -1.285   5.599   3.750 -0.0381  2.1639  1.1503
   22PEO   H1FB15249  -1.416   5.505   3.651 -1.0287  0.0472  2.0757
   22PEO   C1FC15250  -1.368   5.600   3.677  1.2169 -0.2721 -0.4608
   22PEO   C1FD15251  -1.491   5.670   3.748 -0.8551  0.2156 -0.4711
   22PEO   H1FE15252  -1.551   5.705   3.663 -0.1015  1.5471 -0.4778
   22PEO   H1FF15253  -1.540   5.612   3.827  3.0672  0.2251  2.2888
   22PEO   O20015254  -1.433   5.787   3.811 -0.1619 -0.0271 -0.4244
   22PEO   H20115255  -1.482   5.947   3.940 -0.1705  0.2556 -0.8134
   22PEO   H20215256  -1.558   5.797   3.989 -1.9085  0.9052 -0.9646
   22PEO   C20315257  -1.524   5.853   3.901 -0.3578  0.3240 -0.7773
   22PEO   C20415258  -1.649   5.899   3.825 -0.9291  0.5384  0.2665
   22PEO   H20515259  -1.674   5.996   3.870  2.3698  1.7291 -0.1708
   22PEO   H20615260  -1.635   5.921   3.718 -0.6153  1.9698  0.5739
   22PEO   O20715261  -1.745   5.797   3.845  0.3550  0.4086  0.3079
   22PEO   H20815262  -1.823   5.794   3.652  0.4130  0.5840  0.3726
   22PEO   H20915263  -1.946   5.847   3.776 -1.9897 -0.5734 -1.2222
   22PEO   C20A15264  -1.859   5.782   3.756 -0.8737  0.4941 -0.0687
   22PEO   C20B15265  -1.911   5.635   3.770  0.0089  0.7273 -0.2655
   22PEO   H20C15266  -1.925   5.602   3.874 -3.0518  1.2807 -0.4171
   22PEO   H20D15267  -2.015   5.621   3.735 -1.0384  0.3315  2.6632
   22PEO   O20E15268  -1.817   5.543   3.700 -0.0829  0.0658 -0.4996
   22PEO   H20F15269  -1.950   5.380   3.724 -0.2185 -0.3988  0.4506
   22PEO   H21015270  -1.815   5.386   3.840  2.2269 -1.0310 -0.1564
   22PEO   C21115271  -1.844   5.405   3.735 -0.3502  0.0901  0.6661
   22PEO   C21215272  -1.750   5.321   3.642 -0.4899 -0.2887  0.4265
   22PEO   H21315273  -1.672   5.393   3.611 -1.8799  1.0490 -0.1036
   22PEO   H21415274  -1.691   5.250   3.701  1.4915  1.2828  0.4419
   22PEO   O21515275  -1.806   5.257   3.533 -0.0253  0.5460 -0.3681
   22PEO   H21615276  -1.813   5.427   3.416 -1.6848  1.3280  2.3292
   22PEO   H21715277  -1.963   5.393   3.477 -2.3179 -0.5418 -5.0024
   22PEO   C21815278  -1.875   5.339   3.439  0.1256 -0.6955  0.0413
   22PEO   C21915279  -1.915   5.265   3.313  0.1679 -0.2403 -0.5188
   22PEO   H21A15280  -1.975   5.328   3.245 -1.7706  0.4037  1.6944
   22PEO   H21B15281  -1.817   5.238   3.269  0.0408  0.1084 -1.0262
   22PEO   O21C15282  -1.986   5.145   3.353 -0.3187  0.4732 -0.3247
   22PEO   H21D15283  -1.924   5.014   3.201  0.3813  0.3420  0.7792
   22PEO   H21E15284  -2.059   5.120   3.156 -0.6355  0.1017  1.3566
   22PEO   C21F15285  -2.017   5.060   3.238  0.3480  0.1649  0.9165
   22PEO   C22015286  -2.128   4.956   3.284 -0.2487  0.8251  0.3463
   22PEO   H22115287  -2.124   4.865   3.223 -1.8742  2.2201 -2.0334
   22PEO   H22215288  -2.122   4.934   3.392  2.4745  0.1938  0.1165
   22PEO   O22315289  -2.257   5.013   3.262  0.1900  0.2751 -0.2029
   22PEO   H22415290  -2.453   5.030   3.312  0.4354 -0.4888  0.3743
   22PEO   H22515291  -2.354   4.919   3.410  1.5951 -1.6060 -1.0894
   22PEO   C22615292  -2.377   4.950   3.307  0.9832  0.0691 -0.4777
   22PEO   C22715293  -2.426   4.832   3.211  0.4805 -0.5515 -0.3338
   22PEO   H22815294  -2.533   4.813   3.227  0.2362  1.2243  0.4019
   22PEO   H22915295  -2.421   4.866   3.106  1.5143  0.2605 -0.0313
   22PEO   O22A15296  -2.340   4.723   3.240  0.0588  0.3021 -0.2269
   22PEO   H22B15297  -2.385   4.627   3.057  2.0950  0.9321 -0.2894
   22PEO   H22C15298  -2.479   4.562   3.203 -0.4504  1.0756 -0.6544
   22PEO   C22D15299  -2.385   4.605   3.165  0.0539  0.2432 -0.3982
   22PEO   C22E15300  -2.277   4.502   3.185  0.4551  0.2470 -0.9334
   22PEO   H22F15301  -2.283   4.469   3.289 -1.4619  1.5895 -0.5767
   22PEO   H23015302  -2.318   4.416   3.129 -0.1916 -0.4792  0.6001
   22PEO   O23115303  -2.153   4.546   3.133 -0.8078  0.6117  0.5698
   22PEO   H23215304  -2.030   4.416   3.239 -0.7533 -0.8628 -3.8748
   22PEO   H23315305  -2.048   4.585   3.318  1.6737  0.6053 -0.8868
   22PEO   C23415306  -2.044   4.524   3.227 -0.6665 -0.3598 -0.4199
   22PEO   C23515307  -1.907   4.567   3.166  0.1806  0.5767  0.7543
   22PEO   H23615308  -1.906   4.653   3.098 -3.3457  1.0929  1.1689
   22PEO   H23715309  -1.840   4.580   3.253  0.1629  0.6952  0.7489
   22PEO   O23815310  -1.858   4.449   3.096  0.1490 -0.8581  0.2951
   22PEO   H23915311  -1.706   4.600   3.037 -0.4053  0.5033  3.2726
   22PEO   H23A15312  -1.768   4.497   2.904 -1.0891  0.9110 -0.3677
   22PEO   C23B15313  -1.743   4.500   3.011  0.3314  1.0816 -0.6773
   22PEO   C23C15314  -1.616   4.409   3.037 -0.1227 -0.1082  0.3337
   22PEO   H23D15315  -1.553   4.422   2.948  1.0993 -0.1049  1.1708
   22PEO   H23E15316  -1.569   4.436   3.133 -3.0219 -2.4874  2.6012
   22PEO   O23F15317  -1.645   4.271   3.040 -1.4171  0.9594  0.2023
   22PEO   H24015318  -1.603   4.082   3.115 -0.2585  0.4442  0.0000
   22PEO   H24115319  -1.497   4.213   3.175  1.7401 -0.5604 -0.4631
   22PEO   C24215320  -1.546   4.172   3.085  0.4630 -0.0171 -0.0320
   22PEO   C24315321  -1.451   4.126   2.975 -0.9446 -1.0375 -0.5128
   22PEO   H24415322  -1.420   4.209   2.910 -2.1626 -0.8739 -0.8977
   22PEO   H24515323  -1.361   4.079   3.020 -2.1453 -2.3369  0.6437
   22PEO   O24615324  -1.519   4.026   2.895 -0.6575 -0.6236  0.1992
   22PEO   H24715325  -1.437   4.104   2.717  2.2270 -0.0648  0.4351
   22PEO   H24815326  -1.497   3.931   2.718 -0.9659 -0.8225  2.7675
   22PEO   C24915327  -1.445   4.011   2.773  0.1946  0.1070  0.4914
   22PEO   C24A15328  -1.301   3.957   2.800  0.6215 -0.3551 -0.6283
   22PEO   H24B15329  -1.264   3.932   2.700 -0.1162 -0.3505 -0.9129
   22PEO   H24C15330  -1.227   4.018   2.854  0.8352 -1.8733  0.8587
   22PEO   O24D15331  -1.324   3.841   2.876 -0.0753  0.0295 -0.2260
   22PEO   H24E15332  -1.155   3.856   2.988  0.8303 -0.3075 -0.3659
   22PEO   H24F15333  -1.129   3.764   2.847  1.0776 -1.1212  1.4532
   22PEO   C25015334  -1.205   3.781   2.925 -0.2114  0.0646 -0.0024
   22PEO   C25115335  -1.243   3.663   2.995 -0.5190  0.4752  0.3096
   22PEO   H25215336  -1.168   3.638   3.071 -1.5884 -0.3898  1.1130
   22PEO   H25315337  -1.339   3.675   3.047 -0.0930  2.3173  0.7736
   22PEO   O25415338  -1.235   3.562   2.895 -0.1553  0.6048  0.2476
   22PEO   H25515339  -1.324   3.381   2.866 -2.6050  0.3010  1.0922
   22PEO   H25615340  -1.349   3.462   3.028  2.6915  2.4087  1.2188
   22PEO   C25715341  -1.278   3.439   2.947  0.4415 -0.1225 -0.2027
   22PEO   C25815342  -1.154   3.372   3.018  0.2217  0.1657  0.8682
   22PEO   H25915343  -1.119   3.450   3.088 -2.1286  3.1427 -1.0189
   22PEO   H25A15344  -1.179   3.288   3.084 -1.8003 -0.9804 -1.2189
   22PEO   O25B15345  -1.051   3.324   2.917  1.2999  0.1018  0.6839
   22PEO   H25C15346  -0.934   3.228   3.069  0.1802 -1.2209 -0.9980
   22PEO   H25D15347  -0.892   3.387   3.032 -0.0363  1.3001 -0.3445
   22PEO   C25E15348  -0.925   3.295   2.982  0.3556  0.7215  0.4384
   22PEO   C25F15349  -0.822   3.254   2.876  0.6352  0.3559 -0.1654
   22PEO   H26015350  -0.779   3.347   2.836 -1.9961  1.6856 -0.1247
   22PEO   H26115351  -0.746   3.217   2.946  1.1279 -0.0374 -0.8910
   22PEO   O26215352  -0.868   3.155   2.785 -0.2805 -0.2652 -0.1611
   22PEO   H26315353  -0.686   3.065   2.727  1.0511  1.2391 -0.5536
   22PEO   H26415354  -0.743   3.219   2.640 -0.8160  1.6416  1.7023
   22PEO   C26515355  -0.771   3.125   2.690  0.2018  0.0094 -0.6420
   22PEO   C26615356  -0.830   3.057   2.566 -0.0536  0.2626  0.1770
   22PEO   H26715357  -0.928   3.101   2.542 -0.0193 -0.3682 -1.2263
   22PEO   H26815358  -0.760   3.065   2.481  2.3955  0.4095  2.0862
   22PEO   O26915359  -0.856   2.922   2.586 -0.0018 -0.1972 -0.5723
   22PEO   H26A15360  -0.802   2.846   2.401 -1.4361 -0.0066 -0.5756
   22PEO   H26B15361  -0.974   2.877   2.406 -1.7127  0.9098  2.0391
   22PEO   C26C15362  -0.889   2.844   2.468 -0.8306 -0.4288  0.2188
   22PEO   C26D15363  -0.890   2.692   2.509  0.0962 -0.1294  0.3837
   22PEO   H26E15364  -0.948   2.690   2.603 -1.5101 -1.6745 -0.5837
   22PEO   H26F15365  -0.940   2.646   2.423  1.4954  0.8229 -0.9940
   22PEO   O27015366  -0.761   2.635   2.537  0.6588  0.2085 -0.4427
   22PEO   H27115367  -0.680   2.640   2.344 -5.1286  3.2168  1.8701
   22PEO   H27215368  -0.754   2.485   2.394 -1.6081  0.4954 -0.1662
   22PEO   C27315369  -0.692   2.570   2.428 -1.2286  0.0937  0.1547
   22PEO   C27415370  -0.555   2.510   2.481 -0.4624  0.2563 -0.7220
   22PEO   H27515371  -0.571   2.454   2.574 -0.9412 -0.7906 -1.4142
   22PEO   H27615372  -0.523   2.432   2.410 -1.8668 -2.3344  1.3072
   22PEO   O27715373  -0.472   2.623   2.484  0.0659 -0.3704  0.3446
   22PEO   H27815374  -0.339   2.577   2.632 -1.1079 -0.1126  0.6873
   22PEO   H27915375  -0.292   2.704   2.521  0.8506 -0.7904 -2.1342
   22PEO   C27A15376  -0.337   2.604   2.525  0.4603 -0.5712  0.5663
   22PEO   C27B15377  -0.268   2.487   2.446 -0.1321 -0.4208 -0.0268
   22PEO   H27C15378  -0.290   2.497   2.339  0.7552 -1.0915 -0.2928
   22PEO   H27D15379  -0.161   2.502   2.466 -0.6170 -0.0582  2.5880
   22PEO   O27E15380  -0.311   2.363   2.503  0.2024  0.0465  0.3123
   22PEO   H27F15381  -0.314   2.250   2.334 -3.7745 -1.0405  0.7389
   22PEO   H28015382  -0.347   2.164   2.484 -0.4599 -0.0319 -1.3710
   22PEO   C28115383  -0.282   2.240   2.439  0.4147 -0.0830 -0.2531
   22PEO   C28215384  -0.136   2.195   2.472 -0.4484  0.5474  0.0156
   22PEO   H28315385  -0.124   2.203   2.581  1.4828 -0.9269 -0.0320
   22PEO   H28415386  -0.117   2.092   2.437  0.5913  0.9405 -0.6215
   22PEO   O28515387  -0.045   2.283   2.407  0.4509 -0.0962  0.3605
   22PEO   H28615388   0.111   2.163   2.402 -1.4384 -2.0581  1.8455
   22PEO   H28715389   0.101   2.243   2.558 -0.3532  0.9368  0.0223
   22PEO   C28815390   0.085   2.259   2.450  0.0857 -0.4824 -0.2657
   22PEO   C28915391   0.174   2.367   2.387 -0.0403 -0.5035 -0.5906
   22PEO   H28A15392   0.269   2.386   2.438 -0.6681  2.4881 -0.3730
   22PEO   H28B15393   0.193   2.344   2.281  1.1097  0.3957 -0.5955
   22PEO   O28C15394   0.112   2.500   2.394 -0.5826  0.0910 -0.3982
   22PEO   H28D15395   0.199   2.538   2.217 -1.0625 -0.0234 -0.0989
   22PEO   H28E15396   0.276   2.609   2.352  0.1915 -0.6208 -0.1135
   22PEO   C28F15397   0.176   2.590   2.311 -0.0465 -0.1575  0.2406
   22PEO   C29015398   0.093   2.716   2.298  0.8126 -0.3201 -0.1381
   22PEO   H29115399   0.082   2.757   2.399  1.6052  3.7808 -1.5364
   22PEO   H29215400   0.146   2.782   2.228 -2.3086  3.6974  0.9213
   22PEO   O29315401  -0.031   2.670   2.234 -0.2093  0.0954  0.0082
   22PEO   H29415402  -0.083   2.875   2.202 -2.7729  1.0614  0.5446
   22PEO   H29515403  -0.175   2.793   2.323 -0.3433  1.1999 -0.7316
   22PEO   C29615404  -0.123   2.776   2.228 -0.4601 -0.2458 -0.5651
   22PEO   C29715405  -0.215   2.754   2.110 -0.0980 -0.2927  0.1252
   22PEO   H29815406  -0.279   2.841   2.088  0.9501  0.7864  1.2417
   22PEO   H29915407  -0.155   2.729   2.021 -1.4251 -1.2035 -0.5540
   22PEO   O29A15408  -0.304   2.632   2.142 -0.7272 -0.0701  0.0811
   22PEO   H29B15409  -0.326   2.582   1.944  0.8085  2.5525  0.7879
   22PEO   H29C15410  -0.465   2.664   2.016 -1.5880 -0.0300 -0.8033
   22PEO   C29D15411  -0.388   2.587   2.034 -1.0419  0.6265 -0.2675
   22PEO   C29E15412  -0.465   2.459   2.075 -0.3625 -0.3887 -0.0504
   22PEO   H29F15413  -0.484   2.454   2.183  2.2730  0.3660  0.5153
   22PEO   H2A015414  -0.549   2.469   2.004  0.2278  0.1061 -0.6906
   22PEO   O2A115415  -0.384   2.341   2.036  0.1805  0.0286  0.3340
   22PEO   H2A215416  -0.560   2.238   1.990  0.1634 -0.1397  3.2204
   22PEO   H2A315417  -0.405   2.146   1.977  4.3142  2.5421  0.8224
   22PEO   C2A415418  -0.454   2.243   1.961 -0.6044  0.2472  0.1029
   22PEO   C2A515419  -0.442   2.266   1.810 -0.5206 -0.1187 -0.3803
   22PEO   H2A615420  -0.335   2.263   1.782 -0.9152  1.0891 -2.1588
   22PEO   H2A715421  -0.506   2.196   1.756 -0.4737 -1.0699  0.7629
   22PEO   O2A815422  -0.490   2.401   1.782 -0.0711 -0.4336 -0.5101
   22PEO   H2A915423  -0.580   2.371   1.601  0.8485 -1.5586 -0.9811
   22PEO   H2AA15424  -0.407   2.410   1.597  0.6931  1.3452  0.9269
   22PEO   C2AB15425  -0.503   2.436   1.645 -0.5578  0.0485 -0.7476
   22PEO   C2AC15426  -0.546   2.580   1.614  0.4425 -0.0626 -0.8088
   22PEO   H2AD15427  -0.532   2.592   1.506 -0.1756 -0.7066 -0.9724
   22PEO   H2AE15428  -0.652   2.588   1.641  0.8120  1.6598  0.3085
   22PEO   O2AF15429  -0.472   2.677   1.698 -0.6275  0.2448  0.3181
   22PEO   H2B015430  -0.450   2.814   1.534 -0.2566 -0.8330  0.2914
   22PEO   H2B115431  -0.307   2.720   1.600  1.9809  2.9912 -0.0653
   22PEO   C2B215432  -0.400   2.774   1.624  0.9406  1.0636  0.5123
   22PEO   C2B315433  -0.361   2.892   1.710 -0.5711 -0.2864 -1.6871
   22PEO   H2B415434  -0.301   2.853   1.793 -0.3972  2.1056 -0.6068
   22PEO   H2B515435  -0.308   2.960   1.642  1.7092 -0.2288  0.0495
   22PEO   O2B615436  -0.479   2.951   1.771 -0.3674 -0.2668  0.5180
   22PEO   H2B715437  -0.381   3.135   1.828 -0.5313 -0.8570 -3.0679
   22PEO   H2B815438  -0.397   3.011   1.955 -1.2609 -1.5302 -0.0317
   22PEO   C2B915439  -0.449   3.061   1.872  0.2399  0.0302 -0.0969
   22PEO   C2BA15440  -0.582   3.137   1.927  0.7958  0.2962 -1.2315
   22PEO   H2BB15441  -0.648   3.064   1.977  2.9684 -1.1137 -0.2550
   22PEO   H2BC15442  -0.548   3.189   2.018 -1.1439  0.9287 -0.8247
   22PEO   O2BD15443  -0.651   3.230   1.841  0.3912 -0.1945 -0.6310
   22PEO   H2BE15444  -0.709   3.292   1.888 -0.9576 -0.2126 -2.2054
   23PEO   H00115445   1.976   2.797   2.391 -0.0245 -1.9239 -0.3524
   23PEO   H00215446   1.844   2.764   2.502  0.3834 -0.6106  0.4467
   23PEO   H00315447   1.898   2.648   2.379  3.7939  0.4708 -1.1666
   23PEO   C00415448   1.875   2.754   2.397 -0.6326 -0.4833  0.1263
   23PEO   C00515449   1.771   2.819   2.307  0.1682 -0.2174  0.4553
   23PEO   H00615450   1.678   2.759   2.304 -0.0162  0.1015 -1.8191
   23PEO   H00715451   1.754   2.925   2.331 -0.4204 -0.2117  0.0367
   23PEO   O00815452   1.816   2.804   2.172  0.6465 -0.7729 -0.6139
   23PEO   H00915453   1.675   2.923   2.074  0.0590 -0.2946  3.1031
   23PEO   H00A15454   1.641   2.740   2.089  1.1548 -1.2382  0.4562
   23PEO   C00B15455   1.714   2.820   2.069 -0.1518 -0.3195 -0.7669
   23PEO   C00C15456   1.792   2.787   1.938 -0.1252  0.2530  0.3952
   23PEO   H00D15457   1.843   2.689   1.940  0.5848  0.5247 -1.7867
   23PEO   H00E15458   1.721   2.771   1.856 -0.4851 -1.6098  0.9984
   23PEO   O00F15459   1.878   2.896   1.911 -0.3507  0.1321  0.2837
   23PEO   H01015460   2.047   2.778   1.964 -0.1537 -0.5342 -2.7919
   23PEO   H01115461   2.009   2.901   2.080 -0.6519 -3.7093  0.6729
   23PEO   C01215462   2.004   2.879   1.973  0.0347 -0.6105 -0.0968
   23PEO   C01315463   2.109   2.978   1.913  0.3890  0.3712  0.2309
   23PEO   H01415464   2.202   2.921   1.900  0.7315  1.0224 -0.1982
   23PEO   H01515465   2.074   3.017   1.817  1.2323 -0.3925 -0.4067
   23PEO   O01615466   2.131   3.085   2.007 -0.1601  1.0870  0.1895
   23PEO   H01715467   2.202   3.200   1.864 -2.8209  3.2512  0.7336
   23PEO   H01815468   2.334   3.132   1.982  0.4849  1.4592  0.8399
   23PEO   C01915469   2.235   3.177   1.966 -0.0911 -0.2262 -0.7169
   23PEO   C01A15470   2.234   3.306   2.051 -0.2991 -0.2014  0.6632
   23PEO   H01B15471   2.307   3.381   2.019  0.4226 -1.1615  0.0188
   23PEO   H01C15472   2.139   3.353   2.021  1.5671  2.5129 -1.4629
   23PEO   O01D15473   2.239   3.277   2.190  0.8044 -0.8698 -0.3176
   23PEO   H01E15474   2.116   3.357   2.342 -0.5449 -0.7254 -0.0852
   23PEO   H01F15475   2.154   3.476   2.214  1.8738 -0.1897 -0.6884
   23PEO   C02015476   2.193   3.391   2.272  0.1818  0.2038  1.1408
   23PEO   C02115477   2.306   3.436   2.359  0.1708  0.0468 -0.0350
   23PEO   H02215478   2.271   3.481   2.453  1.4439  1.3384 -0.1332
   23PEO   H02315479   2.372   3.353   2.387  2.6717  1.3587 -1.6307
   23PEO   O02415480   2.386   3.541   2.298  0.5910  0.4575  0.0240
   23PEO   H02515481   2.489   3.396   2.199  2.3544 -0.4226 -0.6966
   23PEO   H02615482   2.596   3.506   2.291  0.5994  0.4699 -0.7493
   23PEO   C02715483   2.505   3.501   2.228  0.1134 -0.2032 -0.0098
   23PEO   C02815484   2.532   3.599   2.114  0.1476  0.2548  0.6426
   23PEO   H02915485   2.506   3.700   2.148 -1.3833  0.6057 -1.3811
   23PEO   H02A15486   2.639   3.598   2.088  0.9411 -1.1967  3.4987
   23PEO   O02B15487   2.452   3.553   2.003  0.1596 -0.0673 -0.3158
   23PEO   H02C15488   2.591   3.631   1.858 -0.0138  0.1476  1.5188
   23PEO   H02D15489   2.439   3.719   1.888 -3.1614 -2.0489 -0.2793
   23PEO   C02E15490   2.484   3.619   1.880 -0.2126 -0.8766  0.1029
   23PEO   C02F15491   2.437   3.541   1.760 -0.1845  0.8256 -0.5640
   23PEO   H03015492   2.335   3.507   1.786  0.1760  0.5081  0.4619
   23PEO   H03115493   2.433   3.600   1.667  3.0980 -0.4687 -1.6624
   23PEO   O03215494   2.523   3.427   1.734  0.6879  1.0713  0.7544
   23PEO   H03315495   2.396   3.279   1.814  0.4025 -0.1804  2.1079
   23PEO   H03415496   2.517   3.325   1.929 -0.7802 -0.0831  0.7343
   23PEO   C03515497   2.501   3.309   1.821  0.3319  0.5729  0.4644
   23PEO   C03615498   2.597   3.195   1.769 -0.4005 -0.9839 -0.4069
   23PEO   H03715499   2.557   3.100   1.806 -0.0347 -1.1037 -0.3099
   23PEO   H03815500   2.577   3.183   1.662 -0.8704 -0.9589 -0.3218
   23PEO   O03915501   2.738   3.221   1.805  0.5083  0.1629 -0.3781
   23PEO   H03A15502   2.742   3.164   2.015  0.5082 -1.1572  0.4121
   23PEO   H03B15503   2.893   3.185   1.936 -0.0327  0.1025  0.1977
   23PEO   C03C15504   2.792   3.146   1.918  0.0535 -0.0160 -0.0385
   23PEO   C03D15505   2.800   2.998   1.888  0.7849  0.0396  0.3500
   23PEO   H03E15506   2.835   2.975   1.786 -0.9352 -2.1087  0.1796
   23PEO   H03F15507   2.872   2.950   1.956 -1.5837 -0.5298  2.6100
   23PEO   O04015508   2.678   2.933   1.924 -0.4989  0.5526  0.5273
   23PEO   H04115509   2.652   2.804   1.761 -1.2447 -4.0544 -0.6616
   23PEO   H04215510   2.554   2.764   1.900 -1.8059  2.7510 -1.4546
   23PEO   C04315511   2.654   2.799   1.871 -0.1712 -0.6526 -0.4129
   23PEO   C04415512   2.763   2.705   1.926  0.3786  0.3553  0.0499
   23PEO   H04515513   2.786   2.742   2.026 -0.2608  1.4770 -0.2022
   23PEO   H04615514   2.722   2.603   1.934  0.8416  0.0511 -1.1540
   23PEO   O04715515   2.877   2.707   1.837  0.8166  0.7557  0.2369
   23PEO   H04815516   3.047   2.589   1.791 -0.4854  0.1200 -0.4429
   23PEO   H04915517   2.956   2.539   1.938  2.0053  0.5178  1.3782
   23PEO   C04A15518   2.984   2.625   1.875  0.2070  0.1997  0.0486
   23PEO   C04B15519   3.084   2.688   1.965  0.4575 -0.4115 -0.5734
   23PEO   H04C15520   3.167   2.620   1.991 -0.6806 -1.8042 -0.4348
   23PEO   H04D15521   3.131   2.767   1.906  0.3069  0.5415  0.5428
   23PEO   O04E15522   3.025   2.729   2.089 -0.4887 -0.5339  0.4012
   23PEO   H04F15523   3.180   2.712   2.224  3.0028  1.9885 -0.9523
   23PEO   H05015524   3.017   2.774   2.273  0.2898 -0.6538 -0.1728
   23PEO   C05115525   3.098   2.780   2.198  0.5265 -0.4172  0.0980
   23PEO   C05215526   3.135   2.929   2.176  0.4673  0.0295  0.7584
   23PEO   H05315527   3.041   2.986   2.186 -0.8354 -1.8248 -0.3004
   23PEO   H05415528   3.208   2.961   2.252  3.6135  1.4562 -2.5625
   23PEO   O05515529   3.193   2.947   2.044  0.6179  0.0871  0.1842
   23PEO   H05615530   3.289   3.130   2.075 -0.2862  1.6709 -0.6971
   23PEO   H05715531   3.114   3.135   2.049  0.4080  0.4281  0.0695
   23PEO   C05815532   3.207   3.088   2.014  0.1176 -0.0192 -0.1224
   23PEO   C05915533   3.220   3.093   1.863  0.0462  0.4158  0.2141
   23PEO   H05A15534   3.200   2.991   1.827  0.9635  0.1814  0.3427
   23PEO   H05B15535   3.163   3.171   1.812 -0.0458  0.2392  0.0424
   23PEO   O05C15536   3.362   3.111   1.832  0.5372 -0.1185  0.0643
   23PEO   H05D15537   3.320   3.132   1.630 -0.0122  1.0500 -0.1123
   23PEO   H05E15538   3.375   2.982   1.674 -2.0014 -0.3565 -1.3572
   23PEO   C05F15539   3.395   3.087   1.697 -0.6011 -0.7589 -0.6040
   23PEO   C06015540   3.536   3.143   1.660  0.8388  0.2010 -0.1731
   23PEO   H06115541   3.542   3.149   1.550 -0.7170 -1.6822 -0.4169
   23PEO   H06215542   3.542   3.236   1.718  1.2033  0.8499 -1.2151
   23PEO   O06315543   3.635   3.052   1.700 -0.0048 -0.5687 -0.4983
   23PEO   H06415544   3.768   3.221   1.710 -2.5735 -0.4215 -2.3726
   23PEO   H06515545   3.805   3.118   1.577  2.1971 -1.0100  0.8037
   23PEO   C06615546   3.764   3.115   1.679 -1.1487 -1.1110 -0.4081
   23PEO   C06715547   3.877   3.035   1.754  0.1175  0.5690  0.7538
   23PEO   H06815548   3.965   3.098   1.772  0.3670 -0.3765  3.2533
   23PEO   H06915549   3.841   2.996   1.850 -0.5685  0.2933  0.4023
   23PEO   O06A15550   3.914   2.926   1.667 -0.2859 -0.1431 -0.5539
   23PEO   H06B15551   3.956   2.782   1.827  1.9124  0.2576  1.7322
   23PEO   H06C15552   4.093   2.864   1.762 -0.1216  1.5884 -1.4074
   23PEO   C06D15553   3.996   2.822   1.733 -0.3601  0.4865  0.8026
   23PEO   C06E15554   4.023   2.709   1.625  0.5042 -0.3783 -0.4565
   23PEO   H06F15555   4.063   2.623   1.680  1.0794  0.3154  0.2270
   23PEO   H07015556   3.930   2.693   1.569  0.3003  0.0047 -0.2315
   23PEO   O07115557   4.122   2.754   1.532  0.0070  0.5910 -0.5548
   23PEO   H07215558   4.016   2.629   1.399 -1.1489  0.2602  1.6281
   23PEO   H07315559   4.158   2.562   1.464  0.5450  0.4902  0.5948
   23PEO   C07415560   4.118   2.658   1.429 -0.6520 -0.0812  0.3525
   23PEO   C07515561   4.181   2.705   1.293 -1.0219 -0.4863  0.0065
   23PEO   H07615562   4.171   2.627   1.217  0.2718 -0.3412 -0.3474
   23PEO   H07715563   4.126   2.795   1.261 -0.3604  0.6926  1.9611
   23PEO   O07815564   4.321   2.737   1.307  0.2894 -0.4935  0.0317
   23PEO   H07915565   4.341   2.778   1.100  2.6276 -0.7949 -1.4539
   23PEO   H07A15566   4.439   2.641   1.157  2.7102  0.6533  1.0530
   23PEO   C07B15567   4.399   2.739   1.185 -0.4043 -0.4573  0.9627
   23PEO   C07C15568   4.523   2.832   1.211 -0.0130  0.7463  0.6315
   23PEO   H07D15569   4.578   2.842   1.116  0.1253 -0.9822  0.4842
   23PEO   H07E15570   4.483   2.930   1.241  0.2707  1.1434 -0.2552
   23PEO   O07F15571   4.605   2.769   1.307 -0.7955  0.5631 -0.1656
   23PEO   H08015572   4.673   2.926   1.417  0.8058  0.8529 -0.2219
   23PEO   H08115573   4.743   2.921   1.260  0.8604  1.1881  0.6906
   23PEO   C08215574   4.712   2.855   1.342 -0.1377  0.3814 -0.2920
   23PEO   C08315575   4.840   2.781   1.386 -0.1980  0.5792 -0.9234
   23PEO   H08415576   4.874   2.716   1.304  1.8725  0.4992 -0.0640
   23PEO   H08515577   4.927   2.841   1.415  3.1763 -3.2311 -2.2019
   23PEO   O08615578   4.808   2.697   1.504 -0.5374 -0.2892 -0.0631
   23PEO   H08715579   4.902   2.513   1.465 -1.2422  1.9761 -1.3820
   23PEO   H08815580   4.860   2.541   1.629  0.6184 -0.0676  0.2171
   23PEO   C08915581   4.898   2.593   1.541 -0.1887  0.5699  0.2324
   23PEO   C08A15582   5.044   2.643   1.554  0.1372 -0.7511  0.4797
   23PEO   H08B15583   5.053   2.736   1.613 -1.6261 -0.4445  0.3102
   23PEO   H08C15584   5.108   2.574   1.612  1.1131  0.9170  1.4661
   23PEO   O08D15585   5.110   2.659   1.429  0.6585  0.2072  0.1979
   23PEO   H08E15586   5.310   2.598   1.452  1.4678  0.3247 -2.0998
   23PEO   H08F15587   5.259   2.759   1.527 -1.8884  3.1046 -2.5178
   23PEO   C09015588   5.249   2.689   1.443 -0.1056 -0.4454 -0.0582
   23PEO   C09115589   5.296   2.766   1.312  0.0898 -0.3165 -0.1875
   23PEO   H09215590   5.402   2.789   1.329 -0.6317  1.7833  2.1239
   23PEO   H09315591   5.271   2.705   1.225  2.3717 -0.7501 -0.5892
   23PEO   O09415592   5.231   2.901   1.309 -0.5027 -0.4888  0.1997
   23PEO   H09515593   5.361   2.999   1.451 -0.7888 -0.8205  2.1253
   23PEO   H09615594   5.202   2.958   1.507  1.5756  0.3952  1.1043
   23PEO   C09715595   5.255   2.996   1.419 -0.1744  0.0020 -0.1721
   23PEO   C09815596   5.196   3.129   1.367  0.2218  0.2511  0.4791
   23PEO   H09915597   5.232   3.210   1.432  0.0774 -1.6395  3.0568
   23PEO   H09A15598   5.216   3.137   1.259 -0.4365 -0.2083  0.3180
   23PEO   O09B15599   5.053   3.128   1.381 -0.0544  0.3469 -0.0962
   23PEO   H09C15600   5.005   3.230   1.210 -1.2298  2.0594 -0.4364
   23PEO   H09D15601   5.029   3.319   1.365  0.7695 -1.0141 -0.3446
   23PEO   C09E15602   4.985   3.229   1.318 -0.6237 -0.3870 -0.2812
   23PEO   C09F15603   4.834   3.233   1.344 -0.6671  0.6281  0.4277
   23PEO   H0A015604   4.785   3.314   1.287 -1.5184  0.6776  1.2071
   23PEO   H0A115605   4.799   3.132   1.319 -0.1099 -0.4123  3.4301
   23PEO   O0A215606   4.805   3.259   1.484 -0.3298  0.5252  0.6120
   23PEO   H0A315607   4.648   3.241   1.628  1.9249  2.1484 -0.3507
   23PEO   H0A415608   4.603   3.183   1.479 -0.8812  0.6912  1.8376
   23PEO   C0A515609   4.664   3.264   1.521  0.3939  1.2164 -0.8119
   23PEO   C0A615610   4.594   3.390   1.484  0.4373 -0.4363  0.6189
   23PEO   H0A715611   4.605   3.402   1.375  1.7735  1.1975  0.8935
   23PEO   H0A815612   4.489   3.387   1.516  0.3897 -0.0595  0.4999
   23PEO   O0A915613   4.657   3.500   1.553 -0.1914  0.3347  0.6612
   23PEO   H0AA15614   4.524   3.664   1.574  0.2937 -1.7861  2.6084
   23PEO   H0AB15615   4.589   3.635   1.411 -1.4184 -0.5145  0.0194
   23PEO   C0AC15616   4.614   3.635   1.518 -0.7833 -0.1708 -0.1240
   23PEO   C0AD15617   4.732   3.737   1.531  0.8227  0.2783  0.2615
   23PEO   H0AE15618   4.687   3.837   1.522 -0.9606 -0.5668 -0.8183
   23PEO   H0AF15619   4.771   3.719   1.632 -0.9913  0.1888  0.9854
   23PEO   O0B015620   4.821   3.727   1.417 -0.2147  0.1015  0.1631
   23PEO   H0B115621   4.839   3.533   1.347 -0.3916 -1.0858  2.4265
   23PEO   H0B215622   4.892   3.562   1.510 -1.7791  2.8465  1.2333
   23PEO   C0B315623   4.894   3.605   1.409  0.0658  0.5716  0.2148
   23PEO   C0B415624   5.038   3.616   1.366 -0.2185 -0.1999 -0.2029
   23PEO   H0B515625   5.095   3.666   1.446  0.4901  0.0156 -0.8232
   23PEO   H0B615626   5.093   3.521   1.365  0.1080 -0.0581  1.6417
   23PEO   O0B715627   5.048   3.674   1.240  0.2494 -0.0728 -0.6213
   23PEO   H0B815628   5.016   3.482   1.163 -1.2360  0.7065 -2.0016
   23PEO   H0B915629   5.185   3.537   1.143 -0.0880 -1.6912 -0.4255
   23PEO   C0BA15630   5.080   3.570   1.141  0.4508  0.2990  0.7978
   23PEO   C0BB15631   5.036   3.606   0.997  0.0324 -0.1917  0.0561
   23PEO   H0BC15632   5.058   3.520   0.931 -3.4636  1.1347 -3.2050
   23PEO   H0BD15633   4.927   3.616   0.989 -0.0453 -1.2889 -0.3995
   23PEO   O0BE15634   5.124   3.717   0.948  0.1201  0.2504 -0.0501
   23PEO   H0BF15635   4.979   3.781   0.800 -1.1775 -1.2079  1.3304
   23PEO   H0C015636   5.133   3.699   0.751 -0.1735 -1.7225  2.8221
   23PEO   C0C115637   5.086   3.768   0.823 -0.8794  0.0745  0.7172
   23PEO   C0C215638   5.142   3.910   0.819 -1.1985 -0.2061  1.3143
   23PEO   H0C315639   5.176   3.941   0.919  0.8131 -2.3952  1.3893
   23PEO   H0C415640   5.222   3.920   0.745 -0.0705 -0.4061  2.4821
   23PEO   O0C515641   5.044   4.006   0.767 -0.3395  0.7650 -0.2438
   23PEO   H0C615642   5.211   4.146   0.744  0.2790  2.1080 -0.0739
   23PEO   H0C715643   5.081   4.166   0.873  2.2212  0.4043  1.2883
   23PEO   C0C815644   5.105   4.134   0.771  0.7159  0.1950  0.9775
   23PEO   C0C915645   5.029   4.226   0.658  0.4281  1.0634 -0.2660
   23PEO   H0CA15646   5.087   4.317   0.642  1.0835  0.6328 -0.3626
   23PEO   H0CB15647   5.023   4.163   0.568  2.0583  1.2096 -0.4946
   23PEO   O0CC15648   4.891   4.254   0.698 -0.4674 -0.2717  0.0093
   23PEO   H0CD15649   4.913   4.426   0.561 -0.6104  1.5378 -0.1202
   23PEO   H0CE15650   4.885   4.467   0.739 -1.3320  1.4617 -1.3146
   23PEO   C0CF15651   4.870   4.394   0.658 -0.4412  0.2752 -0.4498
   23PEO   C0D015652   4.721   4.417   0.638  0.1334  0.0632 -0.1720
   23PEO   H0D115653   4.661   4.366   0.715 -1.5209 -0.2626 -1.6329
   23PEO   H0D215654   4.713   4.525   0.658 -0.3595 -0.0129  0.0442
   23PEO   O0D315655   4.680   4.388   0.499 -0.0738 -0.3723 -0.2678
   23PEO   H0D415656   4.496   4.483   0.515  3.8757  3.2393 -3.9823
   23PEO   H0D515657   4.488   4.300   0.519  0.9175 -0.0731  0.3035
   23PEO   C0D615658   4.535   4.389   0.474  0.8049 -0.1703 -0.0131
   23PEO   C0D715659   4.505   4.372   0.327  0.1673  0.5365  0.1221
   23PEO   H0D815660   4.558   4.279   0.303  1.6307  0.8378  1.9538
   23PEO   H0D915661   4.400   4.358   0.298  0.6973  0.2580 -1.8037
   23PEO   O0DA15662   4.552   4.477   0.245 -0.3744  0.3955  0.2408
   23PEO   H0DB15663   4.439   4.435   0.079  0.8507  1.7208 -2.6684
   23PEO   H0DC15664   4.612   4.363   0.097  1.5814 -0.0490 -0.9821
   23PEO   C0DD15665   4.544   4.450   0.106  0.6160 -0.8872  0.1413
   23PEO   C0DE15666   4.595   4.574   0.037 -0.5628  0.3561  0.0562
   23PEO   H0DF15667   4.677   4.610   0.101 -0.3524 -0.3816  0.2101
   23PEO   H0E015668   4.645   4.550  -0.058  1.2349 -3.0734  1.6744
   23PEO   O0E115669   4.480   4.668   0.031 -0.5742 -0.2204 -0.1767
   23PEO   H0E215670   4.591   4.777  -0.101  2.1014  1.0231  1.9102
   23PEO   H0E315671   4.558   4.864   0.045  1.4634  0.1496  0.0915
   23PEO   C0E415672   4.513   4.793  -0.025  0.4041  0.6030  0.2996
   23PEO   C0E515673   4.384   4.857  -0.074 -0.4536  0.1894 -0.6987
   23PEO   H0E615674   4.317   4.883   0.009  2.1925 -0.7908  1.9644
   23PEO   H0E715675   4.408   4.952  -0.124 -0.8978 -1.4616 -4.3396
   23PEO   O0E815676   4.330   4.772  -0.178 -0.7292  0.2861 -0.8291
   23PEO   H0E915677   4.227   4.940  -0.254 -2.0412 -0.0426  1.5889
   23PEO   H0EA15678   4.139   4.809  -0.176  1.6656  0.6267  2.0705
   23PEO   C0EB15679   4.221   4.831  -0.246  0.2670 -0.3384  0.0221
   23PEO   C0EC15680   4.197   4.758  -0.377  0.2779 -0.9829 -0.3008
   23PEO   H0ED15681   4.213   4.652  -0.352 -0.3978 -1.8290 -3.1198
   23PEO   H0EE15682   4.095   4.779  -0.414 -0.0305  0.8080  1.3831
   23PEO   O0EF15683   4.306   4.805  -0.459  0.6804  0.3254  0.4991
   23PEO   H0F015684   4.207   4.748  -0.634  1.1960 -0.8800 -1.0753
   23PEO   H0F115685   4.319   4.634  -0.578  0.9920  0.3863  0.7118
   23PEO   C0F215686   4.305   4.743  -0.584  0.5855  0.3128  0.3264
   23PEO   C0F315687   4.407   4.796  -0.684  0.2141  0.2641  0.2867
   23PEO   H0F415688   4.499   4.814  -0.627  2.1501 -4.1742 -0.9271
   23PEO   H0F515689   4.436   4.714  -0.752 -0.8394  1.4431 -1.6468
   23PEO   O0F615690   4.351   4.909  -0.752 -0.4196  0.3119 -0.1533
   23PEO   H0F715691   4.325   4.969  -0.952  0.9289  0.6589 -1.5559
   23PEO   H0F815692   4.465   4.877  -0.930 -2.1226 -0.4020 -0.9154
   23PEO   C0F915693   4.409   4.958  -0.881 -0.2371  0.5273 -0.1619
   23PEO   C0FA15694   4.490   5.083  -0.865 -0.4300 -0.0936  0.4239
   23PEO   H0FB15695   4.502   5.110  -0.971 -1.3502  2.1598  0.8361
   23PEO   H0FC15696   4.445   5.159  -0.800  0.7022  0.0865  1.0089
   23PEO   O0FD15697   4.614   5.026  -0.811 -0.1680 -0.5818  0.4629
   23PEO   H0FE15698   4.690   5.221  -0.795 -1.2049 -0.5553 -2.1682
   23PEO   H0FF15699   4.794   5.108  -0.880 -0.3953 -0.2085 -0.2663
   23PEO   C10015700   4.725   5.116  -0.795 -0.2301 -0.2882 -0.1224
   23PEO   C10115701   4.806   5.076  -0.673 -0.1110 -0.2022 -0.4801
   23PEO   H10215702   4.801   4.967  -0.659 -0.9372 -0.1359 -0.1712
   23PEO   H10315703   4.914   5.090  -0.686  0.1320  0.0087  1.4896
   23PEO   O10415704   4.749   5.137  -0.549  0.1508 -0.0562  0.6743
   23PEO   H10515705   4.666   4.962  -0.458  0.9662  1.4558  2.5769
   23PEO   H10615706   4.551   5.058  -0.555 -0.9013 -2.0351  1.9025
   23PEO   C10715707   4.639   5.064  -0.489  0.7531  0.6207 -0.3318
   23PEO   C10815708   4.591   5.137  -0.354  0.1417  0.4312  0.2386
   23PEO   H10915709   4.515   5.074  -0.306 -1.1994  1.5675 -0.3209
   23PEO   H10A15710   4.680   5.147  -0.290  0.1597  2.2822 -0.0095
   23PEO   O10B15711   4.541   5.266  -0.381 -0.0070 -0.2856  0.7497
   23PEO   H10C15712   4.382   5.253  -0.247 -1.2155  0.1921 -0.1962
   23PEO   H10D15713   4.410   5.418  -0.312 -0.3697 -0.6485  1.3582
   23PEO   C10E15714   4.458   5.325  -0.278  0.0356 -0.6024  0.9254
   23PEO   C10F15715   4.534   5.364  -0.153  0.3742 -0.1421 -0.0742
   23PEO   H11015716   4.619   5.419  -0.196 -1.0330  1.6296 -0.7114
   23PEO   H11115717   4.478   5.439  -0.095  1.0152 -2.0784  3.3550
   23PEO   O11215718   4.560   5.251  -0.067 -0.0499 -0.7875 -0.3869
   23PEO   H11315719   4.528   5.306   0.125 -1.1332  3.3584 -3.6346
   23PEO   H11415720   4.702   5.343   0.065  1.0075 -1.5228  1.2143
   23PEO   C11515721   4.613   5.278   0.061  0.6763 -1.0229  0.0528
   23PEO   C11615722   4.652   5.149   0.129  0.5615 -0.5639 -0.0604
   23PEO   H11715723   4.701   5.175   0.224 -0.7714 -1.0427  0.7776
   23PEO   H11815724   4.554   5.101   0.144 -1.1303  3.0030  1.3335
   23PEO   O11915725   4.741   5.074   0.041 -0.8992  0.1037  0.3828
   23PEO   H11A15726   4.742   4.897   0.163 -1.6395  0.8563 -1.2150
   23PEO   H11B15727   4.891   4.999   0.170 -0.8989  1.1433  0.9146
   23PEO   C11C15728   4.810   4.962   0.105  0.2941  0.0278  0.0023
   23PEO   C11D15729   4.879   4.864   0.008  0.2692  0.0520  1.0119
   23PEO   H11E15730   4.913   4.775   0.062 -0.7837 -0.4969  0.7770
   23PEO   H11F15731   4.813   4.829  -0.073 -0.4630  0.1799  1.5474
   23PEO   O12015732   4.991   4.929  -0.060  0.2286  0.6475  0.1240
   23PEO   H12115733   4.975   5.132  -0.078  0.7660  0.7589 -1.7218
   23PEO   H12215734   4.865   5.035  -0.187  0.1200  0.4125 -1.5000
   23PEO   C12315735   4.966   5.045  -0.144 -0.5444 -0.9656  0.5621
   23PEO   C12415736   5.062   5.079  -0.258  0.3000  0.0226  0.7873
   23PEO   H12515737   5.010   5.156  -0.316  0.3070  1.9527  3.1804
   23PEO   H12615738   5.161   5.109  -0.220  0.3993  1.0954 -0.2947
   23PEO   O12715739   5.080   4.953  -0.336  0.6028  0.6374  0.2024
   23PEO   H12815740   5.251   4.999  -0.435  0.1809 -1.6237  0.7253
   23PEO   H12915741   5.097   5.054  -0.510  0.1394  0.3165  1.4003
   23PEO   C12A15742   5.147   4.971  -0.458 -0.1311 -0.3961  0.5419
   23PEO   C12B15743   5.140   4.851  -0.547 -0.3700 -0.4061 -0.3750
   23PEO   H12C15744   5.033   4.827  -0.558 -0.9824  0.0197  3.4253
   23PEO   H12D15745   5.201   4.857  -0.639  1.5345 -1.2735  0.7718
   23PEO   O12E15746   5.198   4.743  -0.468  0.3885 -0.1256 -0.2912
   23PEO   H12F15747   5.301   4.585  -0.554 -1.4900 -0.7428 -1.3997
   23PEO   H13015748   5.137   4.619  -0.624 -0.9617 -0.9650 -0.3183
   23PEO   C13115749   5.196   4.612  -0.531 -1.0246  0.1443 -0.1729
   23PEO   C13215750   5.139   4.513  -0.430 -0.0380  0.0356  0.2755
   23PEO   H13315751   5.147   4.410  -0.469 -1.4721 -0.4112  1.0803
   23PEO   H13415752   5.188   4.522  -0.332 -0.4961  3.0475  0.3056
   23PEO   O13515753   5.003   4.546  -0.422 -0.1517  0.4168 -0.6382
   23PEO   H13615754   5.020   4.700  -0.287  0.5792 -0.5514 -2.1292
   23PEO   H13715755   4.955   4.559  -0.219  0.9812  1.0820  1.3365
   23PEO   C13815756   4.949   4.619  -0.311 -0.6448 -0.3506  0.4529
   23PEO   C13915757   4.812   4.658  -0.356 -0.0909 -0.1884 -0.3935
   23PEO   H13A15758   4.775   4.735  -0.287  0.3558 -0.0419 -0.3132
   23PEO   H13B15759   4.819   4.701  -0.456 -1.2022 -1.2331 -0.9519
   23PEO   O13C15760   4.720   4.551  -0.362 -0.0955  0.2307 -0.1909
   23PEO   H13D15761   4.578   4.666  -0.468 -1.3887 -1.2082 -1.5908
   23PEO   H13E15762   4.545   4.648  -0.291  1.0162 -2.0699  2.4283
   23PEO   C13F15763   4.580   4.597  -0.382 -0.2386  0.8333  0.1426
   23PEO   C14015764   4.476   4.477  -0.408  0.6202 -0.5655 -0.3758
   23PEO   H14115765   4.501   4.404  -0.330  1.5416  0.3033  0.1670
   23PEO   H14215766   4.375   4.518  -0.389 -0.2198 -1.7229 -2.0530
   23PEO   O14315767   4.482   4.426  -0.544 -0.2088 -0.2245 -0.5610
   23PEO   H14415768   4.633   4.282  -0.487  2.9216  0.8961 -0.4862
   23PEO   H14515769   4.688   4.416  -0.581 -0.1925 -0.6441 -2.1597
   23PEO   C14615770   4.601   4.350  -0.568 -0.2965 -0.1944 -0.2658
   23PEO   C14715771   4.591   4.260  -0.692  0.0136 -0.4371  0.7341
   23PEO   H14815772   4.675   4.190  -0.682  0.8643  0.3939 -0.4408
   23PEO   H14915773   4.493   4.210  -0.701 -0.2674  0.1491  0.4927
   23PEO   O14A15774   4.620   4.337  -0.810 -0.1178  0.3993  0.1350
   23PEO   H14B15775   4.542   4.532  -0.765  3.2693 -0.2544  0.4956
   23PEO   H14C15776   4.441   4.426  -0.862  0.4949  0.5408 -3.0319
   23PEO   C14D15777   4.546   4.453  -0.842  0.1226  0.1890 -0.2286
   23PEO   C14E15778   4.611   4.517  -0.969  0.4141  0.3969 -0.4484
   23PEO   H14F15779   4.614   4.446  -1.053 -2.4099 -0.9954  0.5244
   23PEO   H15015780   4.554   4.604  -1.005  1.5578  0.3108 -2.6684
   23PEO   O15115781   4.739   4.554  -0.932 -0.3159  0.4287 -0.0199
   23PEO   H15215782   4.714   4.624  -0.740  0.9573 -1.4300 -0.2568
   23PEO   H15315783   4.717   4.756  -0.864  1.5729  0.4128 -1.1591
   23PEO   C15415784   4.754   4.656  -0.838 -0.2081 -0.0719 -0.3237
   23PEO   C15515785   4.913   4.679  -0.827  0.6550  0.3386 -0.9114
   23PEO   H15615786   4.930   4.758  -0.751  0.1595 -1.2739  0.9759
   23PEO   H15715787   4.971   4.591  -0.798  0.8372  0.4086 -1.0667
   23PEO   O15815788   4.956   4.742  -0.940  0.3024 -0.2305  0.3072
   23PEO   H15915789   5.145   4.709  -1.011 -2.1674  0.2023 -2.0350
   23PEO   H15A15790   5.148   4.794  -0.855 -1.8436 -0.7283  0.1532
   23PEO   C15B15791   5.097   4.788  -0.952 -0.4089  0.3276 -0.7004
   23PEO   C15C15792   5.103   4.928  -1.018 -0.0404 -0.5697 -0.0929
   23PEO   H15D15793   5.206   4.948  -1.054  0.3319  1.7991  2.0364
   23PEO   H15E15794   5.045   4.924  -1.112  2.6423  2.1878 -2.0753
   23PEO   O15F15795   5.061   5.024  -0.914 -0.2354 -0.2955  0.0953
   23PEO   H16015796   5.012   5.228  -0.878 -0.4255 -1.5233  2.0355
   23PEO   H16115797   5.013   5.179  -1.043  0.2071  0.7027  0.9062
   23PEO   C16215798   5.068   5.165  -0.949  0.5058  0.6434  0.7238
   23PEO   C16315799   5.212   5.208  -0.944 -0.0073  0.3282 -0.7270
   23PEO   H16415800   5.282   5.145  -1.000  1.9792  1.0742  0.8010
   23PEO   H16515801   5.223   5.311  -0.981  0.2729  0.3245 -0.6557
   23PEO   O16615802   5.252   5.192  -0.808  0.0975 -0.0405 -0.0812
   23PEO   H16715803   5.406   5.339  -0.792 -0.3853 -0.2554  0.0319
   23PEO   H16815804   5.459   5.173  -0.822  2.9039  1.8489  0.8553
   23PEO   C16915805   5.385   5.234  -0.768  0.3601 -0.3977  0.0856
   23PEO   C16A15806   5.408   5.214  -0.626  0.2088 -0.2268 -0.1768
   23PEO   H16B15807   5.362   5.120  -0.593 -2.9978  1.9547  2.2066
   23PEO   H16C15808   5.514   5.203  -0.600  0.3359  1.2228  0.0061
   23PEO   O16D15809   5.356   5.329  -0.554 -0.2399 -0.1363  0.1215
   23PEO   H16E15810   5.390   5.461  -0.400  5.1962  1.4737 -1.1984
   23PEO   H16F15811   5.531   5.378  -0.459  0.4634 -0.1573  2.1342
   23PEO   C17015812   5.425   5.363  -0.436 -0.0851 -0.9918 -0.5416
   23PEO   C17115813   5.412   5.249  -0.334  0.6652  0.8661  0.6942
   23PEO   H17215814   5.439   5.289  -0.235  0.9399 -0.1079  1.0230
   23PEO   H17315815   5.306   5.220  -0.328  1.1321 -0.8881  0.9390
   23PEO   O17415816   5.487   5.129  -0.366 -1.1061 -0.4133 -0.1827
   23PEO   H17515817   5.389   5.028  -0.212  0.8390  1.4539  2.2285
   23PEO   H17615818   5.553   5.064  -0.179 -3.1009 -0.7115  1.0224
   23PEO   C17715819   5.487   5.034  -0.262 -0.6085 -0.4041 -1.2064
   23PEO   C17815820   5.525   4.896  -0.315 -0.6842 -0.0111 -0.1124
   23PEO   H17915821   5.542   4.840  -0.221 -0.6670  2.2993  1.3508
   23PEO   H17A15822   5.442   4.853  -0.373 -0.8061  1.8979 -1.4261
   23PEO   O17B15823   5.657   4.887  -0.384 -0.3491 -0.4447 -0.3040
   23PEO   H17C15824   5.785   4.842  -0.227  1.8178  1.6558  1.2611
   23PEO   H17D15825   5.792   5.015  -0.272  3.0701 -0.2006  1.3382
   23PEO   C17E15826   5.779   4.913  -0.310  0.0177  0.4626  0.3059
   23PEO   C17F15827   5.898   4.899  -0.413  0.2740 -0.6450  0.6266
   23PEO   H18015828   5.879   4.924  -0.519  1.5729 -2.2545 -0.0281
   23PEO   H18115829   5.985   4.955  -0.376  0.3592 -0.5246  0.2556
   23PEO   O18215830   5.939   4.761  -0.407  0.3818  0.4155 -0.0088
   23PEO   H18315831   5.806   4.708  -0.560 -1.4768  0.6827  0.4305
   23PEO   H18415832   5.750   4.666  -0.396 -0.7428  3.6205 -0.9104
   23PEO   C18515833   5.838   4.668  -0.463 -0.0025  0.2647 -0.1990
   23PEO   C18615834   5.916   4.535  -0.491  0.0664  0.3803 -0.4078
   23PEO   H18715835   5.963   4.484  -0.406 -1.6845  0.6047  0.7652
   23PEO   H18815836   5.856   4.468  -0.554  1.3398 -0.0519 -1.1869
   23PEO   O18915837   6.025   4.568  -0.578  0.1059  0.3809  0.0010
   23PEO   H18A15838   6.081   4.371  -0.614 -1.2077  0.4168  0.6441
   23PEO   H18B15839   6.184   4.459  -0.502  1.4497 -0.4349 -0.0337
   23PEO   C18C15840   6.127   4.469  -0.596  0.0343 -0.1838  0.8155
   23PEO   C18D15841   6.232   4.513  -0.703  0.4477  0.6103 -0.0426
   23PEO   H18E15842   6.253   4.621  -0.703 -0.0301  0.9070 -4.3176
   23PEO   H18F15843   6.321   4.452  -0.686 -1.2897 -1.2315  3.6580
   23PEO   O19015844   6.185   4.475  -0.834 -0.1136  0.3579 -0.4729
   23PEO   H19115845   6.228   4.485  -1.045  2.3736 -1.8727 -0.4094
   23PEO   H19215846   6.362   4.502  -0.947 -0.1157  0.5966  3.0525
   23PEO   C19315847   6.257   4.534  -0.950 -0.5667 -0.8118  0.0332
   23PEO   C19415848   6.245   4.689  -0.954  0.8214 -0.0312 -0.3976
   23PEO   H19515849   6.262   4.735  -0.855 -0.0620 -1.2432  0.3351
   23PEO   H19615850   6.321   4.721  -1.027 -1.6755  1.5030 -2.4702
   23PEO   O19715851   6.124   4.727  -1.016 -0.0338 -0.0802 -0.9977
   23PEO   H19815852   6.033   4.734  -0.822  0.1863  2.5136 -0.7071
   23PEO   H19915853   5.963   4.619  -0.925 -3.8708  1.9543  0.2938
   23PEO   C19A15854   6.008   4.719  -0.928 -0.1691  0.4286 -0.3761
   23PEO   C19B15855   5.898   4.813  -0.977  0.6202 -0.5915  0.8971
   23PEO   H19C15856   5.879   4.816  -1.086 -1.6108 -1.1114  1.2403
   23PEO   H19D15857   5.801   4.787  -0.933  0.4110 -0.1697  0.7011
   23PEO   O19E15858   5.927   4.944  -0.923  0.4529  0.8159  0.2834
   23PEO   H19F15859   5.754   5.020  -1.018 -0.1017  1.3469 -0.2063
   23PEO   H1A015860   5.850   5.146  -0.958 -2.3811  1.4567 -1.2811
   23PEO   C1A115861   5.823   5.042  -0.935  0.0214  0.9868 -0.2098
   23PEO   C1A215862   5.749   5.039  -0.798 -0.0591  0.5549 -0.0218
   23PEO   H1A315863   5.818   5.009  -0.717  1.2806 -0.5543 -1.5115
   23PEO   H1A415864   5.700   5.136  -0.783 -1.4434 -0.3578  1.7405
   23PEO   O1A515865   5.640   4.951  -0.820  0.1581 -0.2489 -0.5123
   23PEO   H1A615866   5.574   4.949  -0.615  3.0944  0.2962  0.2822
   23PEO   H1A715867   5.655   4.809  -0.669  1.2295  3.3008  5.3381
   23PEO   C1A815868   5.580   4.883  -0.702 -0.2391 -0.0053  0.1598
   23PEO   C1A915869   5.454   4.810  -0.753 -0.6385  0.4734  0.8538
   23PEO   H1AA15870   5.384   4.774  -0.677 -1.0047 -2.5745 -0.7655
   23PEO   H1AB15871   5.393   4.882  -0.809 -0.1448  0.0644 -0.2533
   23PEO   O1AC15872   5.490   4.705  -0.851  0.7375  0.0406 -0.4848
   23PEO   H1AD15873   5.564   4.823  -1.011  2.5501 -1.9864 -0.1783
   23PEO   H1AE15874   5.399   4.805  -1.014  0.1457  0.6241  1.0986
   23PEO   C1AF15875   5.488   4.746  -0.989  0.1509  0.4497  0.6777
   23PEO   C1B015876   5.495   4.627  -1.087 -0.3413  0.1670 -0.1489
   23PEO   H1B115877   5.443   4.538  -1.049  1.5607 -1.0999 -0.3470
   23PEO   H1B215878   5.454   4.647  -1.187 -0.6145 -1.7123 -0.4599
   23PEO   O1B315879   5.637   4.600  -1.103  0.7188 -0.2729 -0.0847
   23PEO   H1B415880   5.642   4.553  -1.294  0.1670  0.1020 -1.0179
   23PEO   H1B515881   5.592   4.417  -1.195 -0.9118  1.1948 -1.5124
   23PEO   C1B615882   5.664   4.499  -1.201  0.1797  0.3047 -0.9027
   23PEO   C1B715883   5.814   4.458  -1.177  0.0955  0.0209 -0.5157
   23PEO   H1B815884   5.866   4.469  -1.273 -1.5332  0.7470 -1.3689
   23PEO   H1B915885   5.861   4.536  -1.115  3.4188 -2.3442  0.1918
   23PEO   O1BA15886   5.828   4.325  -1.117 -0.0264  0.2795  0.3751
   23PEO   H1BB15887   6.018   4.371  -1.032  0.0069  0.7650 -0.7861
   23PEO   H1BC15888   6.022   4.253  -1.157  0.2979 -0.1570  0.0093
   23PEO   C1BD15889   5.959   4.288  -1.074  0.2723  0.2613 -0.1841
   23PEO   C1BE15890   5.963   4.158  -0.984  0.1345  0.4990  0.5983
   23PEO   H1BF15891   6.067   4.140  -0.953 -0.0929 -0.5713  0.7857
   23PEO   H1C015892   5.900   4.172  -0.895  1.4562 -1.5105  1.9281
   23PEO   O1C115893   5.922   4.037  -1.056 -0.2649  1.1006  0.6816
   23PEO   H1C215894   5.987   3.905  -0.907 -1.1961 -0.6674  0.7330
   23PEO   H1C315895   6.079   3.886  -1.050  0.6751  0.4167 -0.9066
   23PEO   C1C415896   5.977   3.909  -1.016  1.0878  0.2628  0.5042
   23PEO   C1C515897   5.889   3.793  -1.078  0.5695  0.0122 -0.0713
   23PEO   H1C615898   5.872   3.819  -1.184 -3.1400  1.4725  0.6849
   23PEO   H1C715899   5.927   3.693  -1.055  1.4161 -0.1189 -1.8798
   23PEO   O1C815900   5.757   3.809  -1.018 -0.3300 -0.0951 -0.1914
   23PEO   H1C915901   5.702   3.665  -1.152 -2.1596 -0.0121 -0.9489
   23PEO   H1CA15902   5.580   3.784  -1.102 -1.3217 -0.6322  0.7649
   23PEO   C1CB15903   5.664   3.723  -1.066 -0.0684  0.4101 -0.2583
   23PEO   C1CC15904   5.620   3.626  -0.951 -0.7219 -0.4185  0.2693
   23PEO   H1CD15905   5.605   3.677  -0.855  2.0368  1.8113 -0.3686
   23PEO   H1CE15906   5.536   3.557  -0.968 -1.4082  0.6107 -0.6390
   23PEO   O1CF15907   5.734   3.535  -0.942 -0.6169 -0.2091  0.8967
   23PEO   H1D015908   5.630   3.402  -0.805 -0.6287 -1.0145  0.0620
   23PEO   H1D115909   5.724   3.537  -0.747  0.9207 -0.2743 -0.3857
   23PEO   C1D215910   5.723   3.458  -0.824 -0.7219 -0.8285  0.1504
   23PEO   C1D315911   5.843   3.363  -0.807 -1.0050  0.4082  0.5099
   23PEO   H1D415912   5.942   3.411  -0.806 -0.9733  0.3357  0.8887
   23PEO   H1D515913   5.825   3.319  -0.708  0.0461 -0.0237  0.5286
   23PEO   O1D615914   5.835   3.264  -0.911 -0.3082  0.2724 -0.0170
   23PEO   H1D715915   5.732   3.118  -1.010  0.9019  1.4285 -0.8665
   23PEO   H1D815916   5.667   3.157  -0.852  1.4029  2.3922  1.9517
   23PEO   C1D915917   5.761   3.141  -0.906 -0.1160 -0.5351 -0.1071
   23PEO   C1DA15918   5.832   3.021  -0.843  0.5794 -0.6748  0.0799
   23PEO   H1DB15919   5.769   2.935  -0.873  0.0849  0.3289 -1.9140
   23PEO   H1DC15920   5.939   3.025  -0.867  0.9690 -1.7191  1.5108
   23PEO   O1DD15921   5.814   3.026  -0.698  0.7692 -0.2421  0.4647
   23PEO   H1DE15922   5.958   2.892  -0.652  0.0588 -1.9174  3.2383
   23PEO   H1DF15923   5.802   2.808  -0.683 -0.4805 -1.2768  1.5085
   23PEO   C1E015924   5.849   2.899  -0.642 -0.3302 -0.4610 -0.3284
   23PEO   C1E115925   5.821   2.902  -0.489 -0.4902 -0.1197 -0.3334
   23PEO   H1E215926   5.858   2.806  -0.450  2.4280  0.0318 -2.4558
   23PEO   H1E315927   5.879   2.983  -0.443 -0.4739 -1.4799  2.2358
   23PEO   O1E415928   5.684   2.924  -0.454 -0.2694 -0.5534  0.1887
   23PEO   H1E515929   5.566   2.996  -0.295  0.1312 -0.6601  3.7265
   23PEO   H1E615930   5.737   3.008  -0.273  1.0864  0.0701 -0.6245
   23PEO   C1E715931   5.659   2.940  -0.310  0.2228  0.0747  1.0566
   23PEO   C1E815932   5.653   2.806  -0.239  0.1343  0.0128 -0.2518
   23PEO   H1E915933   5.747   2.749  -0.251 -0.5432 -0.9585 -1.1300
   23PEO   H1EA15934   5.645   2.829  -0.132  3.8934 -1.1626  0.4491
   23PEO   O1EB15935   5.536   2.735  -0.287 -0.7536 -0.0461  0.4599
   23PEO   H1EC15936   5.650   2.557  -0.274 -0.0247  0.1859 -1.9788
   23PEO   H1ED15937   5.487   2.537  -0.333  2.5843 -2.5065  0.0339
   23PEO   C1EE15938   5.547   2.593  -0.260  0.0617 -0.3933  0.6295
   23PEO   C1EF15939   5.496   2.583  -0.116  0.6809 -0.3030  0.2911
   23PEO   H1F015940   5.443   2.676  -0.093  0.3427 -0.2496 -0.6716
   23PEO   H1F115941   5.423   2.500  -0.119 -0.5916  0.7844  0.5288
   23PEO   O1F215942   5.601   2.547  -0.035 -0.0472  0.2202  0.2128
   23PEO   H1F315943   5.460   2.452   0.110  0.5331 -1.1028  1.5325
   23PEO   H1F415944   5.512   2.614   0.148  2.4248  0.1089  1.7024
   23PEO   C1F515945   5.547   2.520   0.103 -0.1740 -0.2845  0.3154
   23PEO   C1F615946   5.658   2.473   0.192 -0.2422  0.7013  0.0967
   23PEO   H1F715947   5.742   2.543   0.196  1.9164 -1.5831 -1.8011
   23PEO   H1F815948   5.623   2.461   0.296  1.5511 -0.6088  0.5952
   23PEO   O1F915949   5.717   2.345   0.157 -0.4119  0.1592  0.1071
   23PEO   H1FA15950   5.853   2.447   0.048  0.2479  0.1042 -1.4356
   23PEO   H1FB15951   5.749   2.328  -0.044 -0.2733 -0.7350 -0.2184
   23PEO   C1FC15952   5.806   2.348   0.048 -0.1936  0.2995 -0.4723
   23PEO   C1FD15953   5.915   2.244   0.081  0.0177 -0.3274 -0.1506
   23PEO   H1FE15954   5.882   2.177   0.162 -0.4319  0.0541 -0.0165
   23PEO   H1FF15955   5.923   2.185  -0.011 -1.9089 -0.2696 -0.3810
   23PEO   O20015956   6.039   2.303   0.129  0.4192 -0.3597  0.8475
   23PEO   H20115957   5.971   2.409   0.293  0.0281 -0.7142  0.3549
   23PEO   H20215958   6.148   2.413   0.274  0.6407 -0.7416  0.3200
   23PEO   C20315959   6.059   2.351   0.261  0.3125 -0.2825  0.3473
   23PEO   C20415960   6.056   2.233   0.361 -1.1424 -0.0682  0.3394
   23PEO   H20515961   6.063   2.271   0.464 -0.1888  1.6112 -0.3139
   23PEO   H20615962   5.957   2.186   0.376 -1.7249  1.0612  0.1035
   23PEO   O20715963   6.166   2.151   0.338  0.6219 -0.3162  0.4196
   23PEO   H20815964   6.143   2.072   0.147 -2.1342 -0.3154 -0.1772
   23PEO   H20915965   6.042   2.008   0.271 -0.8384  1.2302 -2.5897
   23PEO   C20A15966   6.146   2.039   0.252  0.0387  0.0998 -0.0638
   23PEO   C20B15967   6.243   1.921   0.284  0.4301 -0.1377 -0.2868
   23PEO   H20C15968   6.237   1.906   0.392  2.6146  1.8475  0.1704
   23PEO   H20D15969   6.218   1.833   0.222  4.5797 -1.2866 -0.5813
   23PEO   O20E15970   6.377   1.953   0.259 -0.7799  0.1481  0.4041
   23PEO   H20F15971   6.419   1.750   0.222  1.5373 -0.2477 -0.6747
   23PEO   H21015972   6.469   1.810   0.381 -1.0273 -0.4405  0.1300
   23PEO   C21115973   6.464   1.836   0.274  0.0550  0.0520  0.1933
   23PEO   C21215974   6.602   1.872   0.217 -0.2153 -0.1675  0.7297
   23PEO   H21315975   6.671   1.787   0.200  0.7551  1.2680 -3.7318
   23PEO   H21415976   6.601   1.919   0.118  1.6960  1.8498  1.5767
   23PEO   O21515977   6.673   1.956   0.312  0.2987  0.3983 -0.0852
   23PEO   H21615978   6.854   1.888   0.372 -0.7413 -0.9638 -2.1491
   23PEO   H21715979   6.708   1.787   0.433 -1.8755  0.4310 -0.8548
   23PEO   C21815980   6.751   1.885   0.408  0.0218 -0.0445  0.2821
   23PEO   C21915981   6.752   1.981   0.531 -0.9544  0.5552 -0.3595
   23PEO   H21A15982   6.823   1.947   0.608 -2.0741  0.0179  0.4631
   23PEO   H21B15983   6.767   2.088   0.511 -1.5333  0.8731  0.8565
   23PEO   O21C15984   6.620   1.970   0.593  0.0675 -0.1048  0.1324
   23PEO   H21D15985   6.554   2.134   0.466 -0.4481 -1.0632 -0.4282
   23PEO   H21E15986   6.565   2.170   0.638 -0.3773 -0.1800 -0.2418
   23PEO   C21F15987   6.543   2.090   0.566  0.3556 -0.5311 -0.0928
   23PEO   C22015988   6.394   2.052   0.577 -0.0826  0.8807 -0.6575
   23PEO   H22115989   6.343   2.112   0.500 -2.1596 -0.2794 -0.2454
   23PEO   H22215990   6.381   1.944   0.564  0.7916  0.4547  1.6261
   23PEO   O22315991   6.352   2.094   0.710 -0.3488  0.0941  0.0469
   23PEO   H22415992   6.199   1.954   0.750  1.0024 -0.4994 -3.0884
   23PEO   H22515993   6.141   2.109   0.687  0.1814  0.9671  0.2694
   23PEO   C22615994   6.216   2.063   0.752  0.0163 -0.3411 -0.4432
   23PEO   C22715995   6.217   2.127   0.894 -0.2052  0.1212 -0.4785
   23PEO   H22815996   6.310   2.173   0.931  1.1970 -2.6008 -0.3191
   23PEO   H22915997   6.134   2.198   0.897 -0.4010 -0.0805 -1.0660
   23PEO   O22A15998   6.197   2.020   0.992  0.0006 -0.2831 -0.3231
   23PEO   H22B15999   6.390   2.004   1.052 -2.6214  2.1204  0.7047
   23PEO   H22C16000   6.331   1.881   0.923 -0.2591  0.0835 -0.4729
   23PEO   C22D16001   6.309   1.939   1.014 -0.3560 -0.3001 -0.2498
   23PEO   C22E16002   6.271   1.831   1.116  0.1008 -0.7118  0.6109
   23PEO   H22F16003   6.357   1.761   1.119  2.6130  2.0250 -1.5643
   23PEO   H23016004   6.256   1.881   1.213  0.9125  0.1391  0.3119
   23PEO   O23116005   6.153   1.763   1.067  0.1903  0.5034  0.1561
   23PEO   H23216006   6.193   1.557   1.084 -0.5184 -0.2616  0.3139
   23PEO   H23316007   6.253   1.634   0.935  0.7162 -0.6664 -0.1132
   23PEO   C23416008   6.171   1.634   1.009  1.0269  0.1559  0.2552
   23PEO   C23516009   6.036   1.582   0.947 -0.1892 -0.0762 -0.2088
   23PEO   H23616010   6.009   1.644   0.861  0.1359  1.2415  0.6064
   23PEO   H23716011   6.048   1.483   0.901  0.1345  0.2490 -0.8327
   23PEO   O23816012   5.941   1.576   1.045  0.1677  0.3600 -0.3176
   23PEO   H23916013   5.839   1.417   0.942 -1.3936 -1.9970  2.5310
   23PEO   H23A16014   5.767   1.575   0.922 -3.6521 -2.4211 -0.4145
   23PEO   C23B16015   5.821   1.512   0.994 -0.6269 -0.0947 -0.4250
   23PEO   C23C16016   5.731   1.478   1.111 -0.2797  0.2628 -0.1591
   23PEO   H23D16017   5.707   1.570   1.167 -2.9819 -1.4074  1.7067
   23PEO   H23E16018   5.632   1.446   1.074 -1.1038  3.1669 -0.7536
   23PEO   O23F16019   5.786   1.365   1.186 -0.2756  0.1443 -0.3280
   23PEO   H24016020   5.593   1.292   1.205  2.0365 -0.8115 -3.2806
   23PEO   H24116021   5.647   1.405   1.334  2.1988  1.3436 -0.9196
   23PEO   C24216022   5.677   1.321   1.270 -0.4216 -0.4037 -0.0168
   23PEO   C24316023   5.738   1.207   1.347  0.1026 -0.4875 -0.6613
   23PEO   H24416024   5.671   1.119   1.347  1.0811 -1.2738  0.2545
   23PEO   H24516025   5.836   1.175   1.310  0.0325 -0.2614 -1.0417
   23PEO   O24616026   5.753   1.259   1.485  0.6659  0.8948  0.3833
   23PEO   H24716027   5.733   1.213   1.679  3.0697 -0.3164 -1.5102
   23PEO   H24816028   5.661   1.095   1.557  3.7586 -0.2558 -3.1802
   23PEO   C24916029   5.674   1.199   1.588  0.1329 -0.6005  0.3184
   23PEO   C24A16030   5.537   1.265   1.601 -0.6294 -0.0962  0.1712
   23PEO   H24B16031   5.487   1.281   1.504  1.2330  1.4763 -0.5892
   23PEO   H24C16032   5.481   1.198   1.668  0.1548  0.3109  1.2520
   23PEO   O24D16033   5.540   1.405   1.656  0.3912  0.4442 -0.4075
   23PEO   H24E16034   5.329   1.423   1.645 -0.1855 -0.8541  2.3043
   23PEO   H24F16035   5.426   1.536   1.539 -0.0647 -0.9891 -0.9549
   23PEO   C25016036   5.422   1.481   1.635 -0.7453 -0.2884 -0.5755
   23PEO   C25116037   5.419   1.577   1.756 -0.0356  0.4475  0.6834
   23PEO   H25216038   5.524   1.591   1.785  0.9445 -2.0177 -1.3098
   23PEO   H25316039   5.364   1.670   1.739  0.0340  0.7212  1.8747
   23PEO   O25416040   5.370   1.510   1.872  0.8836 -0.1054  0.1079
   23PEO   H25516041   5.275   1.692   1.920  0.3066 -0.2608 -0.7523
   23PEO   H25616042   5.414   1.652   2.027 -1.4497 -0.2359  1.6854
   23PEO   C25716043   5.332   1.610   1.968 -0.3512 -0.2347  0.0879
   23PEO   C25816044   5.235   1.554   2.068 -0.3392 -0.4928 -0.1396
   23PEO   H25916045   5.287   1.512   2.155 -1.0504 -0.7701  0.1568
   23PEO   H25A16046   5.179   1.638   2.112 -0.8260 -1.2515  0.7141
   23PEO   O25B16047   5.141   1.470   2.004  0.0183  0.1109 -0.6264
   23PEO   H25C16048   5.013   1.475   2.171 -1.6116 -0.2132 -0.7576
   23PEO   H25D16049   5.053   1.308   2.110  0.6761 -0.2779 -0.5093
   23PEO   C25E16050   5.030   1.412   2.082 -0.0813 -0.3947 -0.3610
   23PEO   C25F16051   4.905   1.403   1.995 -0.3121 -0.4941 -0.1475
   23PEO   H26016052   4.918   1.366   1.892  0.0872  0.0048 -0.2830
   23PEO   H26116053   4.835   1.334   2.043 -1.6424  1.0660  0.2694
   23PEO   O26216054   4.837   1.528   1.978  0.6205  0.2507  0.4937
   23PEO   H26316055   4.641   1.473   2.023 -2.9308  1.1462 -1.2280
   23PEO   H26416056   4.681   1.438   1.855 -1.3687  1.2766 -0.7811
   23PEO   C26516057   4.700   1.507   1.938  0.2049 -0.2852  0.2310
   23PEO   C26616058   4.651   1.644   1.894  0.5455  0.0268 -0.2173
   23PEO   H26716059   4.542   1.627   1.888  0.7642 -1.3253 -0.7399
   23PEO   H26816060   4.670   1.723   1.968 -1.1630  0.2394  0.0418
   23PEO   O26916061   4.712   1.668   1.765  0.4107 -0.2685 -0.1818
   23PEO   H26A16062   4.541   1.707   1.649  0.0846  0.9152 -0.8572
   23PEO   H26B16063   4.697   1.748   1.581 -1.1191 -1.1864 -1.1483
   23PEO   C26C16064   4.640   1.748   1.676  0.1180  0.5172 -0.3540
   23PEO   C26D16065   4.623   1.890   1.727  0.5790 -0.3566 -0.6028
   23PEO   H26E16066   4.711   1.914   1.787  1.1886 -2.4618 -0.5685
   23PEO   H26F16067   4.620   1.959   1.641 -2.6782 -0.6764 -0.8612
   23PEO   O27016068   4.507   1.916   1.817 -0.2112 -0.0494 -0.1798
   23PEO   H27116069   4.303   1.897   1.873 -0.8150 -2.4292 -0.6350
   23PEO   H27216070   4.360   1.771   1.785  0.2070  0.1406  3.8983
   23PEO   C27316071   4.371   1.881   1.788  0.3005  0.4354 -0.4023
   23PEO   C27416072   4.314   1.955   1.658 -0.7107 -0.5415  0.1523
   23PEO   H27516073   4.204   1.950   1.650 -0.6751 -1.2077  0.0178
   23PEO   H27616074   4.344   2.061   1.653 -0.7156 -0.4558  1.4152
   23PEO   O27716075   4.352   1.881   1.543 -0.4456  0.1621  0.1771
   23PEO   H27816076   4.261   2.018   1.419  3.2038 -0.0404 -1.2168
   23PEO   H27916077   4.193   1.847   1.412  2.7917 -3.6071 -1.6305
   23PEO   C27A16078   4.282   1.910   1.425  0.5323 -0.5601  0.4313
   23PEO   C27B16079   4.372   1.868   1.304  0.3850 -0.3563 -0.2075
   23PEO   H27C16080   4.395   1.763   1.327 -1.7040 -0.2206  3.4116
   23PEO   H27D16081   4.314   1.861   1.211  1.6475  0.7311 -1.1067
   23PEO   O27E16082   4.472   1.965   1.275 -0.1343 -0.3238  0.5182
   23PEO   H27F16083   4.504   1.944   1.066 -0.0232  1.0285  0.2902
   23PEO   H28016084   4.603   1.842   1.167 -2.4696 -1.1842 -2.0899
   23PEO   C28116085   4.555   1.941   1.163 -0.4411  0.0359  0.4946
   23PEO   C28216086   4.664   2.051   1.170  0.3555  0.2203 -0.4228
   23PEO   H28316087   4.709   2.036   1.070  2.2170  2.2171  0.0211
   23PEO   H28416088   4.613   2.148   1.185 -0.4462 -0.6752  4.1143
   23PEO   O28516089   4.763   2.031   1.277  0.1457 -0.4092 -0.1827
   23PEO   H28616090   4.668   2.084   1.466 -1.3853  0.6113 -1.2535
   23PEO   H28716091   4.693   2.218   1.364 -2.2640 -0.5687  0.1910
   23PEO   C28816092   4.740   2.122   1.392  0.0390  0.4350 -0.0230
   23PEO   C28916093   4.876   2.147   1.475 -0.2867 -0.1061  0.5846
   23PEO   H28A16094   4.851   2.221   1.553 -0.5584  0.0061  0.3920
   23PEO   H28B16095   4.918   2.064   1.533  3.0736  1.0238 -0.0299
   23PEO   O28C16096   4.986   2.198   1.392 -0.2183 -0.1218  0.0257
   23PEO   H28D16097   4.870   2.361   1.348 -0.5241 -1.3642 -0.1696
   23PEO   H28E16098   4.910   2.249   1.206  0.7664  0.5061 -1.3397
   23PEO   C28F16099   4.946   2.301   1.295  0.1674  0.0088 -0.8037
   23PEO   C29016100   5.074   2.387   1.272 -0.5033  0.4437 -0.7484
   23PEO   H29116101   5.048   2.486   1.231  0.5434  1.1473  0.2303
   23PEO   H29216102   5.139   2.404   1.359  0.7807  0.8819 -1.7652
   23PEO   O29316103   5.163   2.314   1.189  0.0497  0.3222 -0.0482
   23PEO   H29416104   5.349   2.392   1.253 -0.8049  0.2778  1.2411
   23PEO   H29516105   5.270   2.486   1.131 -1.0231 -1.2744 -1.8588
   23PEO   C29616106   5.285   2.382   1.164  0.6186 -0.4493  0.2551
   23PEO   C29716107   5.355   2.322   1.051  0.7183 -0.9221 -0.6600
   23PEO   H29816108   5.287   2.334   0.965 -1.7787  2.7901  1.5454
   23PEO   H29916109   5.446   2.380   1.027 -0.4354  1.1560 -0.2096
   23PEO   O29A16110   5.383   2.182   1.078 -0.0971  0.4064 -0.1813
   23PEO   H29B16111   5.454   2.157   0.882  1.0567 -0.5757  0.6529
   23PEO   H29C16112   5.285   2.112   0.902 -0.9559 -2.7047  1.9343
   23PEO   C29D16113   5.383   2.111   0.952  0.0901  0.2202  0.2132
   23PEO   C29E16114   5.406   1.960   0.960  0.1725 -0.0234  0.8695
   23PEO   H29F16115   5.358   1.924   1.052 -0.5069  1.5478  1.1519
   23PEO   H2A016116   5.357   1.922   0.869 -0.0061  1.5035  0.3168
   23PEO   O2A116117   5.543   1.922   0.943  0.5543 -0.0205  0.0343
   23PEO   H2A216118   5.606   1.875   1.139  0.2186 -0.0617  0.4690
   23PEO   H2A316119   5.614   2.052   1.100  3.1683  0.2741  2.8469
   23PEO   C2A416120   5.624   1.950   1.060 -0.0003  0.5521  0.9954
   23PEO   C2A516121   5.771   1.923   1.021 -0.0482 -0.1024 -0.0068
   23PEO   H2A616122   5.844   1.948   1.099  1.6917  1.1809 -1.9407
   23PEO   H2A716123   5.794   1.818   0.999  0.5437  0.2012 -0.8499
   23PEO   O2A816124   5.809   2.007   0.905  0.0470  0.2247  0.3620
   23PEO   H2A916125   5.884   2.154   1.019 -0.5048 -3.5144  0.0544
   23PEO   H2AA16126   5.704   2.176   0.985  0.1906  0.1710  2.3413
   23PEO   C2AB16127   5.802   2.145   0.946 -0.8666 -0.4258 -0.0839
   23PEO   C2AC16128   5.839   2.224   0.822  0.3770 -0.4416  0.4719
   23PEO   H2AD16129   5.870   2.325   0.853 -0.3827  0.4632 -1.5525
   23PEO   H2AE16130   5.919   2.176   0.765  0.2097 -2.3538  1.7588
   23PEO   O2AF16131   5.724   2.258   0.744 -0.3299 -0.0103  0.4881
   23PEO   H2B016132   5.714   2.460   0.764 -1.0248 -1.5223  0.4269
   23PEO   H2B116133   5.603   2.390   0.636 -0.2553 -0.4100  1.0295
   23PEO   C2B216134   5.704   2.391   0.679  0.4308 -0.5851 -0.5361
   23PEO   C2B316135   5.802   2.401   0.556  0.0922 -0.8058  0.1152
   23PEO   H2B416136   5.808   2.299   0.513  1.6741 -1.5233  1.8908
   23PEO   H2B516137   5.772   2.478   0.484  0.1598 -0.3087  0.6165
   23PEO   O2B616138   5.932   2.449   0.612 -0.6828 -0.0756  0.1115
   23PEO   H2B716139   6.016   2.619   0.691 -0.0205 -0.1280  0.2690
   23PEO   H2B816140   5.853   2.644   0.645  1.0118  3.3453 -0.2462
   23PEO   C2B916141   5.945   2.593   0.612 -0.5962 -0.8370  0.9938
   23PEO   C2BA16142   6.007   2.649   0.479  0.7833  0.6617 -1.1213
   23PEO   H2BB16143   6.044   2.752   0.484 -0.4741  1.1098 -0.4058
   23PEO   H2BC16144   6.091   2.583   0.455  1.5395  1.7848 -1.6059
   23PEO   O2BD16145   5.915   2.645   0.377  0.2165 -0.1063  0.4623
   23PEO   H2BE16146   5.973   2.622   0.302  0.5442  0.3502  0.5706
   24PEO   H00116147   2.403   0.451   4.891 -0.7870  1.1194 -0.2066
   24PEO   H00216148   2.369   0.481   5.073  0.7001  2.5831  0.3485
   24PEO   H00316149   2.430   0.606   4.971 -0.8936  0.0101  0.1428
   24PEO   C00416150   2.434   0.497   4.986  0.7783  0.0080 -0.1403
   24PEO   C00516151   2.579   0.459   5.014  0.1816 -0.4364 -0.0573
   24PEO   H00616152   2.642   0.539   4.974 -0.6278 -0.7544 -2.1018
   24PEO   H00716153   2.596   0.450   5.122  1.3464  0.6748 -0.1249
   24PEO   O00816154   2.617   0.344   4.930 -0.0591 -0.1135 -0.3228
   24PEO   H00916155   2.804   0.365   5.020 -1.6890 -0.2211  0.1022
   24PEO   H00A16156   2.793   0.434   4.859  0.3702  0.8133  0.3657
   24PEO   C00B16157   2.762   0.348   4.920  0.3024 -0.0240 -0.8175
   24PEO   C00C16158   2.813   0.218   4.851  0.1238  0.1834  0.1575
   24PEO   H00D16159   2.843   0.140   4.923 -1.1163 -0.7926 -0.3579
   24PEO   H00E16160   2.730   0.182   4.789 -0.8119 -1.7811  2.3898
   24PEO   O00F16161   2.933   0.252   4.779 -0.6446  0.3341  0.1258
   24PEO   H01016162   2.940   0.100   4.654 -0.8079 -0.6078  1.1179
   24PEO   H01116163   3.035   0.085   4.806  0.5263  0.0454 -0.3126
   24PEO   C01216164   3.008   0.151   4.723 -0.3858  0.2222  0.1083
   24PEO   C01316165   3.125   0.210   4.652 -0.0860 -0.6560 -0.7489
   24PEO   H01416166   3.160   0.303   4.700  1.4225 -0.9688 -1.2031
   24PEO   H01516167   3.215   0.149   4.667  0.0067  0.2187  3.9934
   24PEO   O01616168   3.097   0.232   4.516  0.4803  0.3339  0.2196
   24PEO   H01716169   3.291   0.200   4.448 -0.9092 -0.5767 -0.0507
   24PEO   H01816170   3.237   0.373   4.465  0.4716  0.9534 -1.9037
   24PEO   C01916171   3.208   0.271   4.435 -0.0536  0.4618  0.0654
   24PEO   C01A16172   3.170   0.255   4.286 -0.2915 -0.6074 -0.3880
   24PEO   H01B16173   3.246   0.309   4.227 -0.5673  1.2963  0.9240
   24PEO   H01C16174   3.179   0.148   4.262 -0.2686 -1.1082  1.6534
   24PEO   O01D16175   3.048   0.318   4.255 -0.5378  0.2430  0.0078
   24PEO   H01E16176   2.916   0.361   4.094  1.0240  0.3719 -3.5186
   24PEO   H01F16177   3.001   0.212   4.087  0.8486 -0.8106  0.8814
   24PEO   C02016178   3.014   0.317   4.118 -0.0599 -0.4275  0.0137
   24PEO   C02116179   3.120   0.379   4.012 -1.0692  0.2325 -0.8981
   24PEO   H02216180   3.214   0.327   4.036  1.7666  5.1608  0.0597
   24PEO   H02316181   3.095   0.342   3.912  0.2352 -2.0286 -0.4766
   24PEO   O02416182   3.143   0.522   4.026 -0.1643  0.3901  0.2235
   24PEO   H02516183   3.263   0.617   3.868 -0.3972 -0.4981 -0.4191
   24PEO   H02616184   3.331   0.479   3.952 -1.0250 -0.9144 -1.4137
   24PEO   C02716185   3.266   0.566   3.966  0.0740 -0.2381 -0.2956
   24PEO   C02816186   3.318   0.682   4.060  0.1193  0.3969 -0.0833
   24PEO   H02916187   3.304   0.779   4.012  1.1340 -0.1415 -1.5343
   24PEO   H02A16188   3.255   0.686   4.150  0.2608 -2.1352  0.2126
   24PEO   O02B16189   3.463   0.678   4.086  0.0433  0.1637  0.0077
   24PEO   H02C16190   3.486   0.710   4.295 -0.0041 -2.5151 -2.2356
   24PEO   H02D16191   3.435   0.856   4.193  1.9724  0.8732 -0.6001
   24PEO   C02E16192   3.496   0.765   4.200  0.5255 -0.1659 -0.8894
   24PEO   C02F16193   3.649   0.790   4.213  0.4611  0.0214 -0.1317
   24PEO   H03016194   3.696   0.824   4.119  0.1502  0.3671 -0.1648
   24PEO   H03116195   3.668   0.853   4.301  0.2533 -1.5593  1.0864
   24PEO   O03216196   3.715   0.667   4.245  0.2661 -0.2651 -0.5634
   24PEO   H03316197   3.893   0.752   4.304 -0.4216 -0.5943  0.0164
   24PEO   H03416198   3.893   0.697   4.134  1.6565  4.2291  1.1602
   24PEO   C03516199   3.852   0.677   4.235 -0.3345 -0.3656 -0.2868
   24PEO   C03616200   3.921   0.553   4.294  1.0672 -0.3933  0.0023
   24PEO   H03716201   3.864   0.462   4.268 -3.7059  1.8686  1.3784
   24PEO   H03816202   4.019   0.546   4.244  1.5224 -1.4688  0.9979
   24PEO   O03916203   3.928   0.567   4.438 -0.1931  0.0097  0.2675
   24PEO   H03A16204   4.058   0.416   4.503  0.3237 -1.8499  3.6722
   24PEO   H03B16205   3.885   0.379   4.491  1.0690 -1.1509  1.2627
   24PEO   C03C16206   3.958   0.455   4.523  0.2354  0.1711  0.0839
   24PEO   C03D16207   3.927   0.499   4.669  0.5903  0.0754 -0.6198
   24PEO   H03E16208   3.838   0.563   4.666 -0.7675 -1.7310 -3.6880
   24PEO   H03F16209   3.912   0.409   4.730 -0.1711 -1.6860 -3.2508
   24PEO   O04016210   4.036   0.576   4.721 -0.0149 -0.0806  0.3982
   24PEO   H04116211   4.181   0.420   4.724  4.0271  3.5839 -1.3241
   24PEO   H04216212   4.101   0.440   4.877 -1.6795  2.6706  1.0205
   24PEO   C04316213   4.135   0.496   4.789 -0.6007  0.2552 -0.2123
   24PEO   C04416214   4.250   0.594   4.832  0.2622  0.1944 -0.3134
   24PEO   H04516215   4.336   0.529   4.855 -1.0653 -1.4867  0.1565
   24PEO   H04616216   4.275   0.655   4.744 -2.4828  0.6181 -0.9047
   24PEO   O04716217   4.220   0.657   4.954 -0.5418  0.0517 -0.3115
   24PEO   H04816218   4.020   0.712   4.909  0.7100 -2.1104 -2.5855
   24PEO   H04916219   4.141   0.837   4.872  0.4620 -2.0800 -1.2005
   24PEO   C04A16220   4.116   0.756   4.942 -0.6837 -0.7568 -0.0337
   24PEO   C04B16221   4.109   0.821   5.084  0.3793 -0.0345  0.0711
   24PEO   H04C16222   4.197   0.836   5.149 -1.5810  1.8597  2.4969
   24PEO   H04D16223   4.060   0.919   5.075 -0.8651 -0.7326 -1.2970
   24PEO   O04E16224   4.004   0.737   5.140 -0.4720  0.2002  0.0601
   24PEO   H04F16225   3.982   0.873   5.301 -0.4148 -0.0830 -2.4124
   24PEO   H05016226   4.042   0.716   5.353 -1.4834  0.1061  2.1527
   24PEO   C05116227   3.974   0.765   5.283  0.5792 -0.5498 -0.4582
   24PEO   C05216228   3.831   0.708   5.305  0.3620 -0.2865 -0.3094
   24PEO   H05316229   3.827   0.605   5.268  2.5500  0.2946 -2.4474
   24PEO   H05416230   3.824   0.698   5.414  3.2896  0.1993 -0.0066
   24PEO   O05516231   3.724   0.796   5.247 -0.2260  0.2748 -0.2798
   24PEO   H05616232   3.672   0.655   5.107  1.0048 -0.0495  1.1220
   24PEO   H05716233   3.782   0.796   5.051 -1.1566  1.8011 -1.6737
   24PEO   C05816234   3.699   0.761   5.114  0.8130  0.0779  0.1192
   24PEO   C05916235   3.591   0.868   5.086 -0.2423  0.2141  0.6996
   24PEO   H05A16236   3.614   0.973   5.110 -0.8941  0.6291 -0.4324
   24PEO   H05B16237   3.565   0.861   4.979 -0.4431 -3.5917  0.8447
   24PEO   O05C16238   3.476   0.828   5.159  0.6899  0.2754  0.3480
   24PEO   H05D16239   3.347   0.901   5.021 -4.1245 -2.5511  0.2581
   24PEO   H05E16240   3.333   0.993   5.176 -2.7442 -1.5526  3.1982
   24PEO   C05F16241   3.351   0.895   5.130  0.7307  0.0877  0.5304
   24PEO   C06016242   3.222   0.830   5.187 -0.3135 -0.3892 -0.4607
   24PEO   H06116243   3.141   0.868   5.122  0.0351 -0.5928 -1.0270
   24PEO   H06216244   3.235   0.721   5.178  0.0634 -0.4771  1.0440
   24PEO   O06316245   3.201   0.875   5.322  0.3945 -0.2457  1.1359
   24PEO   H06416246   3.115   0.688   5.389 -1.5673  0.4687 -1.9170
   24PEO   H06516247   3.000   0.807   5.366  0.4593 -0.7609 -0.5752
   24PEO   C06616248   3.103   0.796   5.403  0.1535  0.4099  0.7287
   24PEO   C06716249   3.113   0.845   5.553 -0.7844  0.8282 -0.0730
   24PEO   H06816250   3.075   0.759   5.611  1.0659  0.7873  1.1252
   24PEO   H06916251   3.216   0.872   5.576 -1.1882  2.7862 -0.4248
   24PEO   O06A16252   3.021   0.951   5.567 -0.6040 -0.2790  0.1915
   24PEO   H06B16253   3.149   1.061   5.684 -0.1702  0.7961 -2.2536
   24PEO   H06C16254   3.029   0.954   5.777 -2.5689 -0.4590 -1.5291
   24PEO   C06D16255   3.048   1.018   5.690  0.2392 -0.0210 -0.7129
   24PEO   C06E16256   2.941   1.135   5.712  0.1252  0.1337 -0.1413
   24PEO   H06F16257   2.976   1.208   5.787 -0.8915  2.2196 -1.5937
   24PEO   H07016258   2.925   1.180   5.613  0.0296 -1.5678 -0.9215
   24PEO   O07116259   2.816   1.071   5.761 -0.4644 -0.1516 -0.2219
   24PEO   H07216260   2.755   0.890   5.674  3.7103  0.5681 -2.3826
   24PEO   H07316261   2.739   1.037   5.573 -2.1415 -0.6416 -0.2308
   24PEO   C07416262   2.728   0.996   5.675  0.2165 -0.1384  0.2972
   24PEO   C07516263   2.582   1.017   5.711  0.5182  0.3574  0.9709
   24PEO   H07616264   2.544   1.119   5.692 -0.2912 -0.0496  0.3073
   24PEO   H07716265   2.514   0.948   5.659 -0.4297  0.7130  1.7114
   24PEO   O07816266   2.555   0.999   5.854  0.6749  0.0384  0.2851
   24PEO   H07916267   2.420   0.942   6.000  0.2336  1.3282 -0.1453
   24PEO   H07A16268   2.357   0.904   5.838 -2.7206  0.0413  1.6867
   24PEO   C07B16269   2.418   0.975   5.895 -0.5788  0.1314 -0.5283
   24PEO   C07C16270   2.337   1.103   5.895 -0.2065 -0.0241 -0.1590
   24PEO   H07D16271   2.330   1.126   5.787  1.2674  2.5702  0.2001
   24PEO   H07E16272   2.242   1.084   5.947  1.5765 -0.0582  3.3782
   24PEO   O07F16273   2.417   1.207   5.956  0.5088 -0.1671 -0.3265
   24PEO   H08016274   2.270   1.303   6.086  0.6224  1.4158 -0.1597
   24PEO   H08116275   2.267   1.342   5.921 -0.7291 -0.3295 -0.7427
   24PEO   C08216276   2.338   1.318   6.001 -0.1330  0.9757 -0.8569
   24PEO   C08316277   2.421   1.451   6.042 -0.1055  0.2433 -0.6625
   24PEO   H08416278   2.384   1.493   6.137  0.0809 -0.4095 -0.2931
   24PEO   H08516279   2.525   1.414   6.048 -0.4936 -1.2216 -2.2160
   24PEO   O08616280   2.402   1.544   5.927  0.6715  0.1787  0.5296
   24PEO   H08716281   2.471   1.722   5.862 -1.7357 -0.0985 -0.5619
   24PEO   H08816282   2.473   1.704   6.042 -0.0090 -1.2673  0.8718
   24PEO   C08916283   2.416   1.684   5.950  0.0582 -0.1784  0.5703
   24PEO   C08A16284   2.273   1.746   5.967  0.5486 -0.2081  0.1069
   24PEO   H08B16285   2.216   1.709   6.053  1.0298  0.0676  0.5481
   24PEO   H08C16286   2.289   1.854   5.982 -0.0770 -0.1281  0.2187
   24PEO   O08D16287   2.194   1.736   5.841 -0.3733 -0.2033 -0.6821
   24PEO   H08E16288   2.091   1.909   5.815 -0.6615 -0.2420 -1.8045
   24PEO   H08F16289   2.024   1.814   5.949  2.6946  0.9511  1.3049
   24PEO   C09016290   2.070   1.807   5.849 -0.7519  0.2342 -0.3615
   24PEO   C09116291   1.959   1.738   5.761 -1.0854 -0.6774  0.7613
   24PEO   H09216292   1.875   1.804   5.734  1.0678  0.3026 -5.1902
   24PEO   H09316293   1.997   1.707   5.663 -1.8997  1.7784 -0.4255
   24PEO   O09416294   1.919   1.611   5.827 -0.3461  0.4146 -0.3082
   24PEO   H09516295   1.741   1.610   5.720  0.8965  0.1951  0.4053
   24PEO   H09616296   1.750   1.491   5.856  0.7522  0.7593  2.5757
   24PEO   C09716297   1.806   1.541   5.776 -0.3470 -0.6230  0.8808
   24PEO   C09816298   1.870   1.432   5.680 -0.3864  0.0069  0.6192
   24PEO   H09916299   1.819   1.421   5.583  1.0913 -0.5498 -0.1253
   24PEO   H09A16300   1.977   1.450   5.666 -0.5892  1.5169  0.7806
   24PEO   O09B16301   1.858   1.309   5.750  0.0994  0.6736 -0.5322
   24PEO   H09C16302   2.042   1.241   5.682  0.2711 -1.2643  0.3877
   24PEO   H09D16303   1.895   1.163   5.611  1.7685 -2.4194  0.4266
   24PEO   C09E16304   1.939   1.207   5.702 -0.2017  0.0416  0.3136
   24PEO   C09F16305   1.943   1.100   5.816 -0.4076 -0.1392  0.5554
   24PEO   H0A016306   1.846   1.055   5.840 -0.8383  1.3257  1.7140
   24PEO   H0A116307   2.016   1.021   5.794  0.8591  0.1366  3.3478
   24PEO   O0A216308   1.988   1.162   5.936  0.3908 -0.0768 -0.6432
   24PEO   H0A316309   2.027   1.000   6.058 -3.0518 -1.9815  1.5492
   24PEO   H0A416310   1.856   1.068   6.070 -0.8235  0.9370 -0.8158
   24PEO   C0A516311   1.963   1.089   6.058 -0.4631 -0.0094  0.4432
   24PEO   C0A616312   2.009   1.166   6.187  0.1960 -0.3893  0.3415
   24PEO   H0A716313   2.007   1.110   6.282 -1.3845  1.6042  1.5603
   24PEO   H0A816314   2.113   1.199   6.175  0.3174 -0.7230  0.4569
   24PEO   O0A916315   1.941   1.295   6.208 -0.5758  0.1258  0.5132
   24PEO   H0AA16316   1.937   1.380   6.006 -1.7816  1.8788 -0.7685
   24PEO   H0AB16317   2.069   1.432   6.120 -0.4285  0.0322  3.0985
   24PEO   C0AC16318   1.965   1.400   6.110  0.0152 -0.7134 -0.6503
   24PEO   C0AD16319   1.889   1.523   6.164  0.3942  0.0189 -1.1065
   24PEO   H0AE16320   1.894   1.594   6.080  0.4754 -0.1517 -1.2456
   24PEO   H0AF16321   1.787   1.507   6.202  1.0101 -1.4366  0.0724
   24PEO   O0B016322   1.965   1.605   6.263 -0.4829  0.5291  0.4386
   24PEO   H0B116323   1.811   1.714   6.348  0.6219  3.2147  2.0673
   24PEO   H0B216324   1.870   1.765   6.187 -2.5522  0.3279  0.1876
   24PEO   C0B316325   1.901   1.733   6.288 -0.2395  0.1040 -0.5397
   24PEO   C0B416326   1.992   1.824   6.370  0.1304 -0.3806  0.0699
   24PEO   H0B516327   1.932   1.914   6.390  1.9105  0.6588  0.9662
   24PEO   H0B616328   1.998   1.763   6.462 -0.3431 -1.9980 -0.9377
   24PEO   O0B716329   2.111   1.845   6.295 -0.0904 -0.0242  0.3824
   24PEO   H0B816330   2.203   1.881   6.463 -0.6561  0.0394 -0.2182
   24PEO   H0B916331   2.172   2.035   6.367  0.0268  0.1962 -0.0485
   24PEO   C0BA16332   2.201   1.929   6.364  0.0138  0.1952 -0.1648
   24PEO   C0BB16333   2.344   1.912   6.315 -0.9675 -1.2146 -0.2381
   24PEO   H0BC16334   2.408   1.950   6.396 -1.3079  0.7352 -0.8358
   24PEO   H0BD16335   2.381   1.809   6.308  2.1544 -0.1506 -0.9757
   24PEO   O0BE16336   2.361   1.982   6.188  0.1467 -0.5033 -0.3378
   24PEO   H0BF16337   2.567   1.937   6.171 -0.8216 -0.0790 -0.0006
   24PEO   H0C016338   2.519   2.088   6.269  1.7192 -0.9936  0.2567
   24PEO   C0C116339   2.500   2.024   6.182 -0.3417  0.3377 -0.3546
   24PEO   C0C216340   2.523   2.118   6.054  0.1922 -0.0454 -0.5866
   24PEO   H0C316341   2.435   2.184   6.043  0.1686  0.0064 -0.1067
   24PEO   H0C416342   2.606   2.187   6.071  0.3877 -0.1265 -1.1971
   24PEO   O0C516343   2.540   2.047   5.936  0.3383 -0.3280 -0.0223
   24PEO   H0C616344   2.667   1.882   5.984 -2.8590  0.5769  0.7201
   24PEO   H0C716345   2.751   2.028   5.924 -1.5710  0.7408 -1.6680
   24PEO   C0C816346   2.657   1.971   5.920 -1.2731  0.1036 -0.2428
   24PEO   C0C916347   2.646   1.923   5.774 -0.7520  0.0456 -0.0766
   24PEO   H0CA16348   2.683   1.822   5.751 -1.3516 -0.6379  1.7593
   24PEO   H0CB16349   2.540   1.913   5.744 -0.9201 -0.0128  0.5250
   24PEO   O0CC16350   2.721   2.021   5.692 -0.0837  1.1397 -0.0474
   24PEO   H0CD16351   2.660   1.956   5.510  0.2150 -2.4449 -0.3969
   24PEO   H0CE16352   2.796   1.872   5.555 -0.6707  0.0888  1.7450
   24PEO   C0CF16353   2.756   1.975   5.561 -0.4834  0.2947  0.0826
   24PEO   C0D016354   2.855   2.078   5.510 -0.0204  0.0431  0.2553
   24PEO   H0D116355   2.930   2.019   5.455 -0.1421 -2.2478  2.4147
   24PEO   H0D216356   2.803   2.144   5.438 -0.5979  1.0310  1.5294
   24PEO   O0D316357   2.916   2.152   5.618 -0.1425 -0.3005 -0.4186
   24PEO   H0D416358   2.912   2.335   5.529 -0.5176  0.2603 -0.1384
   24PEO   H0D516359   3.057   2.223   5.493 -3.2319 -1.1397 -3.7357
   24PEO   C0D616360   2.988   2.265   5.567  0.5419  0.8995 -1.0337
   24PEO   C0D716361   3.061   2.340   5.679  0.3311 -0.4531 -0.6201
   24PEO   H0D816362   3.077   2.447   5.657 -0.2028  0.6096  3.3383
   24PEO   H0D916363   3.008   2.331   5.775  3.0209 -0.2966  0.9906
   24PEO   O0DA16364   3.187   2.272   5.691 -0.7603 -0.5848  0.6467
   24PEO   H0DB16365   3.230   2.262   5.897  1.4591  0.4903  0.3881
   24PEO   H0DC16366   3.290   2.409   5.809 -2.0736 -0.2314  0.5075
   24PEO   C0DD16367   3.278   2.300   5.805  0.5034 -0.5496 -0.5825
   24PEO   C0DE16368   3.419   2.233   5.788  0.5764  0.3422  0.0127
   24PEO   H0DF16369   3.484   2.281   5.863  0.8202 -0.4342  0.3098
   24PEO   H0E016370   3.406   2.125   5.805 -0.3990  0.6046  1.0704
   24PEO   O0E116371   3.469   2.253   5.659 -0.0688  0.4145  0.2520
   24PEO   H0E216372   3.561   2.423   5.701  1.9597 -1.2297 -0.8120
   24PEO   H0E316373   3.400   2.452   5.625 -0.3721 -0.4228  2.6104
   24PEO   C0E416374   3.491   2.390   5.623 -0.5025 -0.6183  1.0479
   24PEO   C0E516375   3.562   2.398   5.482  0.2380 -1.2128  0.5519
   24PEO   H0E616376   3.641   2.473   5.492 -1.9210  1.1182  1.1017
   24PEO   H0E716377   3.606   2.302   5.452  0.1320 -0.7214 -1.2576
   24PEO   O0E816378   3.473   2.445   5.381  0.5436 -0.2813 -0.2304
   24PEO   H0E916379   3.367   2.258   5.406  1.9545  0.8664  0.8818
   24PEO   H0EA16380   3.424   2.293   5.249  3.2244 -1.9921  2.2939
   24PEO   C0EB16381   3.381   2.342   5.337  0.0539  0.2862 -0.2873
   24PEO   C0EC16382   3.255   2.429   5.300 -0.5003  0.7092 -0.2328
   24PEO   H0ED16383   3.170   2.361   5.285  1.0188 -1.4352  0.5651
   24PEO   H0EE16384   3.245   2.496   5.387  1.0296  1.5172 -0.6401
   24PEO   O0EF16385   3.278   2.499   5.176 -0.2041  0.6960  1.1565
   24PEO   H0F016386   3.212   2.685   5.232 -0.8209  1.4594 -0.7792
   24PEO   H0F116387   3.099   2.578   5.146  0.8578 -1.8324  0.9164
   24PEO   C0F216388   3.204   2.612   5.150  0.1111  0.9121 -0.4022
   24PEO   C0F316389   3.239   2.685   5.021  0.3325  0.2389 -0.9356
   24PEO   H0F416390   3.196   2.785   5.037  0.5268  0.2330 -0.3198
   24PEO   H0F516391   3.345   2.713   5.014  0.9317 -0.7393  2.2836
   24PEO   O0F616392   3.182   2.612   4.907 -0.2262  0.3083 -0.8618
   24PEO   H0F716393   3.169   2.627   4.692  3.6033 -0.0540  0.3372
   24PEO   H0F816394   3.231   2.764   4.774 -1.1881  0.9857 -1.6230
   24PEO   C0F916395   3.154   2.687   4.783 -0.4530  0.3519 -0.4118
   24PEO   C0FA16396   3.022   2.764   4.792  0.2686 -0.2942  0.6932
   24PEO   H0FB16397   2.992   2.781   4.687 -0.1015  0.0427  0.8517
   24PEO   H0FC16398   2.941   2.709   4.843 -0.5362  0.2200  0.0061
   24PEO   O0FD16399   3.034   2.896   4.860 -0.1940  0.6375  0.2636
   24PEO   H0FE16400   2.835   2.945   4.910 -0.9644 -1.5334 -0.7303
   24PEO   H0FF16401   2.875   2.976   4.744 -2.9147  1.3823  0.8067
   24PEO   C10016402   2.917   2.979   4.845 -0.7213 -0.6190  0.0408
   24PEO   C10116403   2.962   3.125   4.874  0.3730 -0.1926  0.1259
   24PEO   H10216404   3.056   3.148   4.822  0.7817  1.6916  1.6118
   24PEO   H10316405   2.889   3.204   4.852  0.2224  0.3826  2.5075
   24PEO   O10416406   2.977   3.136   5.021  0.6558 -0.0543  0.4172
   24PEO   H10516407   3.181   3.188   5.036 -1.1312 -0.6112 -1.5561
   24PEO   H10616408   3.138   3.013   5.075 -1.1387 -0.8360  2.4566
   24PEO   C10716409   3.111   3.119   5.085 -0.1256 -0.3379  0.3969
   24PEO   C10816410   3.110   3.148   5.236  0.0466 -0.6149  0.3258
   24PEO   H10916411   3.040   3.075   5.279 -0.7663  0.2173  0.4403
   24PEO   H10A16412   3.213   3.134   5.272  0.7740  1.5657 -0.7237
   24PEO   O10B16413   3.055   3.276   5.264  0.4000 -0.4165 -0.3368
   24PEO   H10C16414   3.156   3.295   5.436  0.2281 -0.9014 -0.4878
   24PEO   H10D16415   2.988   3.236   5.456 -3.4513  0.8604 -3.3893
   24PEO   C10E16416   3.053   3.305   5.400  0.2119  0.3889 -0.1301
   24PEO   C10F16417   2.992   3.442   5.417 -0.3428  0.0579 -0.3772
   24PEO   H11016418   2.896   3.455   5.364 -1.7865 -3.0823  1.1942
   24PEO   H11116419   2.977   3.462   5.524  3.4002  2.0664 -0.0782
   24PEO   O11216420   3.085   3.539   5.361  0.3789  1.0083  0.1722
   24PEO   H11316421   3.060   3.661   5.522  2.6141  1.2529  0.6118
   24PEO   H11416422   2.961   3.700   5.375  0.9439  2.1418  1.4469
   24PEO   C11516423   3.060   3.671   5.413  0.6293 -0.6633  0.3561
   24PEO   C11616424   3.169   3.768   5.357  0.1356 -0.5261  0.3271
   24PEO   H11716425   3.186   3.767   5.248  2.8346 -0.1287  0.6813
   24PEO   H11816426   3.143   3.874   5.373 -0.0845 -0.0339 -2.6198
   24PEO   O11916427   3.295   3.742   5.414 -0.0534  0.3116 -0.7275
   24PEO   H11A16428   3.399   3.740   5.242 -0.3662 -3.3375  1.3765
   24PEO   H11B16429   3.492   3.726   5.391  1.8334  0.0758 -2.6896
   24PEO   C11C16430   3.411   3.782   5.343 -0.4179 -0.4180  0.2507
   24PEO   C11D16431   3.426   3.930   5.330 -0.0353 -0.1078 -0.1515
   24PEO   H11E16432   3.476   3.954   5.235 -1.5279 -0.2850 -1.0139
   24PEO   H11F16433   3.328   3.982   5.332  0.3718  1.1518 -4.2782
   24PEO   O12016434   3.513   3.977   5.434 -0.2307 -0.2821  0.7273
   24PEO   H12116435   3.469   4.184   5.425  1.3735  1.2519 -2.6230
   24PEO   H12216436   3.596   4.129   5.321 -1.9509 -3.1862 -0.7526
   24PEO   C12316437   3.555   4.116   5.423  0.8879  0.2703  1.0360
   24PEO   C12416438   3.656   4.145   5.534 -0.3278  0.2873  1.2069
   24PEO   H12516439   3.689   4.250   5.530  0.2421  0.0730 -0.5911
   24PEO   H12616440   3.603   4.121   5.627 -1.0799 -0.0186  0.7091
   24PEO   O12716441   3.773   4.062   5.514  0.2301 -0.4902  0.1699
   24PEO   H12816442   3.770   3.922   5.670 -0.2965 -0.9568 -0.1488
   24PEO   H12916443   3.855   4.081   5.704 -0.0670  1.4853 -2.1027
   24PEO   C12A16444   3.836   4.001   5.631 -0.6445 -0.5261  0.1154
   24PEO   C12B16445   3.969   3.923   5.593 -0.2188  0.1381  0.7709
   24PEO   H12C16446   4.001   3.870   5.683  0.1808  0.4954  0.8435
   24PEO   H12D16447   3.946   3.858   5.508  1.1566 -0.7572  1.0638
   24PEO   O12E16448   4.077   4.008   5.542 -0.1957  0.3079  0.1888
   24PEO   H12F16449   4.130   3.868   5.396  0.8768  0.1415 -0.2238
   24PEO   H13016450   4.201   3.845   5.551  0.4161 -0.2762 -0.3276
   24PEO   C13116451   4.180   3.923   5.477  0.4520  0.1079  0.0623
   24PEO   C13216452   4.308   3.999   5.427  0.0155  0.4309 -0.0182
   24PEO   H13316453   4.375   3.923   5.386 -1.5463 -0.7207 -0.5493
   24PEO   H13416454   4.286   4.065   5.342  0.9054  2.1713  1.0310
   24PEO   O13516455   4.371   4.075   5.527  0.2677  0.1847 -0.6649
   24PEO   H13616456   4.231   4.205   5.603 -0.3357  0.9609 -0.7270
   24PEO   H13716457   4.321   4.267   5.451  3.1910  1.3996  0.2932
   24PEO   C13816458   4.325   4.211   5.546  0.0569  0.1882 -0.1754
   24PEO   C13916459   4.437   4.287   5.626 -0.1752  0.2505  0.6638
   24PEO   H13A16460   4.404   4.388   5.652  0.5507  0.2036  1.8330
   24PEO   H13B16461   4.460   4.241   5.724  1.5654  1.5634  0.9051
   24PEO   O13C16462   4.559   4.303   5.554  0.4021  0.3717  0.0827
   24PEO   H13D16463   4.594   4.104   5.516 -0.3928 -0.3180  1.2284
   24PEO   H13E16464   4.684   4.177   5.648  0.6514  1.8738 -0.9831
   24PEO   C13F16465   4.649   4.194   5.545  0.2502  0.1226 -1.1753
   24PEO   C14016466   4.772   4.219   5.453  0.4133  0.0192 -0.0355
   24PEO   H14116467   4.822   4.125   5.423  1.5711  0.3472  0.7834
   24PEO   H14216468   4.753   4.263   5.355  2.5970 -3.1921 -2.1122
   24PEO   O14316469   4.871   4.289   5.531 -0.7575 -0.1235 -0.3853
   24PEO   H14416470   4.769   4.470   5.481  0.0429  1.2734 -2.4411
   24PEO   H14516471   4.921   4.420   5.393  0.6654 -2.5554 -0.0144
   24PEO   C14616472   4.870   4.428   5.490 -0.4012  0.4806 -0.7070
   24PEO   C14716473   4.949   4.521   5.584  0.4164  0.5059  0.1980
   24PEO   H14816474   4.913   4.625   5.582 -3.2291 -0.5632  1.5442
   24PEO   H14916475   4.923   4.492   5.687  2.8896 -1.2207  0.4315
   24PEO   O14A16476   5.083   4.500   5.552 -0.0367  0.2955 -0.3209
   24PEO   H14B16477   5.263   4.598   5.491 -0.4112 -1.2333 -1.3426
   24PEO   H14C16478   5.140   4.698   5.573 -0.0922  0.5575 -1.2310
   24PEO   C14D16479   5.155   4.612   5.506 -0.1638 -0.0173 -0.5194
   24PEO   C14E16480   5.105   4.658   5.366  0.1848  1.0874 -0.6226
   24PEO   H14F16481   5.174   4.743   5.359 -0.1599  1.3574 -0.7627
   24PEO   H15016482   5.131   4.579   5.293 -3.6763 -1.6928  0.6378
   24PEO   O15116483   4.961   4.700   5.359 -0.3969  0.6872 -0.3940
   24PEO   H15216484   4.981   4.898   5.290 -0.9313  1.5023  0.0288
   24PEO   H15316485   4.982   4.875   5.469 -1.3879  3.3504 -0.7183
   24PEO   C15416486   4.937   4.843   5.374  0.5496 -0.6076 -0.5022
   24PEO   C15516487   4.784   4.885   5.383 -0.4115 -0.0077 -0.7969
   24PEO   H15616488   4.781   4.994   5.400  3.3403 -0.2250  2.9341
   24PEO   H15716489   4.737   4.854   5.288  0.9326 -3.4918 -0.4431
   24PEO   O15816490   4.718   4.819   5.487 -0.2158 -0.2494 -0.0555
   24PEO   H15916491   4.854   4.855   5.649 -0.3020  1.1175 -0.9540
   24PEO   H15A16492   4.689   4.769   5.678  0.4774  0.4976  1.0032
   24PEO   C15B16493   4.747   4.845   5.623 -0.3207  0.0573 -0.4952
   24PEO   C15C16494   4.690   4.988   5.659  0.0340  0.0219  0.6402
   24PEO   H15D16495   4.614   5.021   5.587 -0.6088 -0.3924  1.1166
   24PEO   H15E16496   4.656   4.995   5.763  1.1614 -0.3009  1.0475
   24PEO   O15F16497   4.802   5.076   5.650 -0.1115  0.1155 -0.1098
   24PEO   H16016498   4.836   5.270   5.721 -0.5981  2.0058 -1.3770
   24PEO   H16116499   4.667   5.231   5.706 -0.8856 -2.0143 -1.6048
   24PEO   C16216500   4.765   5.214   5.659  0.1423 -0.5520 -0.1049
   24PEO   C16316501   4.779   5.281   5.523  0.6115  1.6833  0.0938
   24PEO   H16416502   4.754   5.388   5.527 -0.7530  1.5066 -1.8979
   24PEO   H16516503   4.881   5.273   5.483  0.1826  1.2660 -0.9560
   24PEO   O16616504   4.692   5.214   5.427  0.8498  0.1339 -0.0706
   24PEO   H16716505   4.738   5.318   5.246  1.0681 -1.0342  1.5002
   24PEO   H16816506   4.608   5.388   5.346 -1.3536 -0.1584 -0.7987
   24PEO   C16916507   4.655   5.294   5.314 -0.4790 -0.0269  0.0453
   24PEO   C16A16508   4.548   5.206   5.242 -0.1293  0.6286 -0.0194
   24PEO   H16B16509   4.504   5.276   5.169 -0.9975  1.1199  0.9428
   24PEO   H16C16510   4.604   5.122   5.201 -0.3670  1.0775 -1.3047
   24PEO   O16D16511   4.448   5.170   5.329  0.3026  0.7238 -0.6326
   24PEO   H16E16512   4.433   4.994   5.233  1.6204  0.9995  1.6123
   24PEO   H16F16513   4.311   5.124   5.191  1.7843 -1.5068 -1.1537
   24PEO   C17016514   4.367   5.073   5.271  0.5811  0.4355  1.0390
   24PEO   C17116515   4.274   5.021   5.378  0.6083 -0.0945  0.5412
   24PEO   H17216516   4.281   5.076   5.473  2.5104  1.5367 -0.4625
   24PEO   H17316517   4.175   5.040   5.335  0.7855 -2.3547 -1.0059
   24PEO   O17416518   4.296   4.883   5.406 -0.0601 -0.2447  0.2115
   24PEO   H17516519   4.409   4.904   5.580  2.0139 -0.2682  0.8733
   24PEO   H17616520   4.505   4.905   5.437 -0.4607  0.7930  0.9871
   24PEO   C17716521   4.417   4.856   5.481 -0.4679  0.2314  0.3671
   24PEO   C17816522   4.439   4.702   5.511 -0.5758 -0.4782  0.4598
   24PEO   H17916523   4.494   4.649   5.431  0.0023 -1.8702  1.7289
   24PEO   H17A16524   4.506   4.681   5.596 -1.0338 -2.3811  0.4095
   24PEO   O17B16525   4.313   4.646   5.534  0.5943 -0.4122 -0.2878
   24PEO   H17C16526   4.227   4.802   5.643  3.0945  0.0315 -2.4914
   24PEO   H17D16527   4.298   4.682   5.739 -0.2667 -0.1700  0.1560
   24PEO   C17E16528   4.239   4.693   5.647 -0.2514 -0.3940  0.1185
   24PEO   C17F16529   4.108   4.606   5.657  0.3822  0.1603 -0.5018
   24PEO   H18016530   4.014   4.656   5.687 -0.7318 -1.9919 -0.1963
   24PEO   H18116531   4.089   4.558   5.560  1.6844  1.8136 -1.6284
   24PEO   O18216532   4.144   4.500   5.746  0.1072  0.0733  0.6389
   24PEO   H18316533   4.042   4.350   5.665  2.8889  0.0953 -0.0538
   24PEO   H18416534   3.964   4.430   5.814 -0.2093  0.4402 -2.2034
   24PEO   C18516535   4.055   4.396   5.764  1.0957  0.4057  0.0773
   24PEO   C18616536   4.132   4.294   5.856 -0.2183 -1.0256  0.4064
   24PEO   H18716537   4.093   4.192   5.842  1.1775 -2.1506  3.7376
   24PEO   H18816538   4.239   4.287   5.831 -0.0221  1.3502  0.4155
   24PEO   O18916539   4.097   4.309   5.993  0.2117 -0.8027  0.3473
   24PEO   H18A16540   4.098   4.516   6.046  2.2259  1.4561 -0.1639
   24PEO   H18B16541   4.258   4.453   6.043  1.5396  0.9235  1.6811
   24PEO   C18C16542   4.155   4.425   6.069  0.9928  0.5222 -0.7226
   24PEO   C18D16543   4.142   4.382   6.220  0.4384 -0.0173 -0.6203
   24PEO   H18E16544   4.137   4.273   6.235  1.4264 -0.0642 -0.5657
   24PEO   H18F16545   4.229   4.416   6.277 -0.4779  0.2026  0.6866
   24PEO   O19016546   4.023   4.441   6.282 -0.9676  0.5459 -0.3462
   24PEO   H19116547   3.899   4.402   6.133  0.7561  4.0113  0.1464
   24PEO   H19216548   3.824   4.435   6.292  1.7923  1.3185  1.8726
   24PEO   C19316549   3.903   4.379   6.241 -0.5287 -0.0031 -0.4728
   24PEO   C19416550   3.880   4.237   6.300  0.0853  0.0391  0.1140
   24PEO   H19516551   3.779   4.206   6.269  0.5940  0.6665 -2.4412
   24PEO   H19616552   3.954   4.174   6.249 -0.7428  1.7881 -3.5842
   24PEO   O19716553   3.885   4.241   6.442 -0.2109  0.2712 -0.6986
   24PEO   H19816554   4.045   4.104   6.475  0.1785  0.3057  2.0495
   24PEO   H19916555   3.873   4.034   6.465 -1.4861  1.8008 -1.1732
   24PEO   C19A16556   3.939   4.112   6.504 -0.4868  0.5680 -0.3058
   24PEO   C19B16557   3.937   4.105   6.663  0.5751 -0.0332 -0.1856
   24PEO   H19C16558   4.011   4.030   6.695 -1.0545 -0.7916  2.0330
   24PEO   H19D16559   3.956   4.201   6.713  0.5129 -0.5995  0.9717
   24PEO   O19E16560   3.805   4.069   6.716  0.0364 -0.7619  0.7267
   24PEO   H19F16561   3.664   4.087   6.874 -0.4816  0.6811  2.3490
   24PEO   H1A016562   3.788   4.207   6.872  1.2805 -0.8619  1.1298
   24PEO   C1A116563   3.772   4.100   6.853 -0.8240 -0.3358 -0.4380
   24PEO   C1A216564   3.856   4.004   6.950 -0.2735 -0.0184 -0.5350
   24PEO   H1A316565   3.964   4.010   6.930 -0.0208 -0.1620  0.7187
   24PEO   H1A416566   3.839   4.036   7.053 -0.1657 -1.7939  0.0621
   24PEO   O1A516567   3.810   3.867   6.921  0.2908 -0.4202  0.4142
   24PEO   H1A616568   3.649   3.902   7.051  0.1348 -0.8630  0.5465
   24PEO   H1A716569   3.700   3.731   7.021  0.4661 -0.0127 -0.6241
   24PEO   C1A816570   3.678   3.829   6.975  0.3571  0.1071 -0.3229
   24PEO   C1A916571   3.568   3.822   6.865 -0.6161 -0.4844  1.2226
   24PEO   H1AA16572   3.504   3.909   6.886 -1.7071 -1.2318  1.0910
   24PEO   H1AB16573   3.612   3.829   6.765 -0.9622 -2.6970  0.8549
   24PEO   O1AC16574   3.485   3.707   6.878  0.1695 -0.0859 -0.4307
   24PEO   H1AD16575   3.344   3.773   6.744  1.2347 -1.0649 -0.0594
   24PEO   H1AE16576   3.291   3.752   6.922 -0.0100  0.4273  1.2216
   24PEO   C1AF16577   3.347   3.713   6.836 -0.3732  0.3723  1.0091
   24PEO   C1B016578   3.303   3.565   6.802 -0.4609  0.1288 -0.1262
   24PEO   H1B116579   3.341   3.494   6.877 -2.9092 -1.0142  0.1268
   24PEO   H1B216580   3.194   3.553   6.796 -0.7009  2.2314 -0.5642
   24PEO   O1B316581   3.350   3.531   6.672 -0.7310 -0.1279 -0.2878
   24PEO   H1B416582   3.199   3.378   6.640 -0.8652  3.0375 -1.0767
   24PEO   H1B516583   3.364   3.321   6.676 -0.1384  1.2453  0.0904
   24PEO   C1B616584   3.306   3.399   6.623 -0.2849  0.5518 -0.7941
   24PEO   C1B716585   3.366   3.396   6.481  0.1117  1.0822  1.1042
   24PEO   H1B816586   3.473   3.420   6.496  1.3960 -2.6539 -0.7373
   24PEO   H1B916587   3.373   3.290   6.453  0.0409  1.3948 -0.1501
   24PEO   O1BA16588   3.302   3.476   6.382 -0.2201  1.0830  0.2977
   24PEO   H1BB16589   3.113   3.513   6.320  0.9746  1.2709  1.2765
   24PEO   H1BC16590   3.125   3.376   6.440  1.6260 -2.2372 -0.8420
   24PEO   C1BD16591   3.171   3.425   6.353  0.1549  0.0098 -0.4329
   24PEO   C1BE16592   3.167   3.325   6.240  0.1481  0.5673  0.0234
   24PEO   H1BF16593   3.060   3.313   6.216  0.2542  1.9799 -1.3156
   24PEO   H1C016594   3.222   3.354   6.149 -0.1431  0.4264 -0.2017
   24PEO   O1C116595   3.222   3.201   6.279  0.7157  0.4305  0.1104
   24PEO   H1C216596   3.255   3.144   6.076  1.2182 -0.3092  0.1844
   24PEO   H1C316597   3.101   3.090   6.149  0.2208  0.2232 -2.8483
   24PEO   C1C416598   3.208   3.105   6.168 -0.1500  0.0483 -0.3357
   24PEO   C1C516599   3.255   2.961   6.216  0.4799  0.2668 -1.1957
   24PEO   H1C616600   3.188   2.931   6.297 -0.5069 -1.5467 -2.5981
   24PEO   H1C716601   3.242   2.883   6.139 -0.3211 -0.4153 -0.3799
   24PEO   O1C816602   3.388   2.979   6.256 -0.5054  0.4251 -0.3717
   24PEO   H1C916603   3.516   3.097   6.148  2.0035  0.1086 -0.9697
   24PEO   H1CA16604   3.434   2.993   6.047 -0.5712  0.8116  0.6147
   24PEO   C1CB16605   3.478   2.994   6.148  0.7734  0.5365  0.0598
   24PEO   C1CC16606   3.600   2.898   6.156 -0.1162  0.0525 -0.0343
   24PEO   H1CD16607   3.662   2.918   6.067 -0.9669  0.4757 -0.5486
   24PEO   H1CE16608   3.648   2.911   6.253 -2.6283 -1.0968  1.4797
   24PEO   O1CF16609   3.550   2.768   6.140  0.2302 -0.0792 -0.3727
   24PEO   H1D016610   3.597   2.716   5.943 -0.2622  3.7753  0.9313
   24PEO   H1D116611   3.422   2.778   5.979 -3.4726 -2.5504  2.1707
   24PEO   C1D216612   3.509   2.717   6.009 -0.7665  0.2281  0.5423
   24PEO   C1D316613   3.466   2.572   6.009 -0.7194  0.0011  0.0139
   24PEO   H1D416614   3.458   2.526   5.909  2.2482 -0.6423 -0.0328
   24PEO   H1D516615   3.546   2.516   6.060 -0.1173  0.4168 -0.4562
   24PEO   O1D616616   3.337   2.557   6.073  0.3431 -0.6547 -0.6732
   24PEO   H1D716617   3.278   2.625   6.267  0.0152 -0.1288 -0.6816
   24PEO   H1D816618   3.435   2.559   6.246  0.4359 -0.6798  0.2508
   24PEO   C1D916619   3.331   2.543   6.215  0.4692 -0.1928 -0.1277
   24PEO   C1DA16620   3.267   2.402   6.238  0.1292  0.6466 -0.1751
   24PEO   H1DB16621   3.269   2.363   6.341 -0.3899  0.8984 -0.0661
   24PEO   H1DC16622   3.165   2.414   6.197 -0.4521  0.7001  1.2505
   24PEO   O1DD16623   3.338   2.298   6.158  0.7304  0.1260 -0.6700
   24PEO   H1DE16624   3.189   2.160   6.167  0.0624  1.5739 -3.7637
   24PEO   H1DF16625   3.299   2.138   6.294 -0.4438 -4.6283 -1.4748
   24PEO   C1E016626   3.297   2.163   6.187 -0.3094 -0.6394 -0.7203
   24PEO   C1E116627   3.381   2.068   6.109 -0.7864 -0.2807 -0.1956
   24PEO   H1E216628   3.346   1.965   6.123  0.4664 -0.8495 -1.0860
   24PEO   H1E316629   3.359   2.080   6.002 -0.1431 -0.9611 -0.4147
   24PEO   O1E416630   3.529   2.099   6.128  0.5005  0.1156 -0.0068
   24PEO   H1E516631   3.701   2.081   6.019  0.8214 -0.3938 -0.0308
   24PEO   H1E616632   3.556   2.021   5.936  0.9644 -1.9581 -0.1937
   24PEO   C1E716633   3.608   2.025   6.033  0.3089  0.4809  0.1332
   24PEO   C1E816634   3.633   1.886   6.092  0.3084 -0.2724  0.1447
   24PEO   H1E916635   3.724   1.852   6.039  0.2058  0.8505 -0.8071
   24PEO   H1EA16636   3.638   1.906   6.200  0.1393  2.3806 -0.2578
   24PEO   O1EB16637   3.526   1.802   6.067  0.1569 -0.2884  0.8349
   24PEO   H1EC16638   3.575   1.700   6.246 -1.5074 -1.9882  1.1266
   24PEO   H1ED16639   3.591   1.607   6.117 -0.8908 -1.7110  1.5268
   24PEO   C1EE16640   3.527   1.690   6.147  0.7447  0.3616 -0.3461
   24PEO   C1EF16641   3.384   1.628   6.158  0.1856 -0.5688 -0.0858
   24PEO   H1F016642   3.365   1.605   6.264 -3.6079  2.3638  0.1005
   24PEO   H1F116643   3.304   1.697   6.127  0.4816 -0.6403 -1.0327
   24PEO   O1F216644   3.377   1.514   6.071  0.7410 -0.2598  0.1310
   24PEO   H1F316645   3.325   1.622   5.898 -0.8002 -0.2261 -0.5952
   24PEO   H1F416646   3.185   1.538   5.972 -1.2446 -0.7329 -1.8399
   24PEO   C1F516647   3.294   1.533   5.954 -0.7485  0.3830  0.4247
   24PEO   C1F616648   3.327   1.410   5.860 -0.1734  0.5210 -0.0719
   24PEO   H1F716649   3.263   1.324   5.883  2.3111 -2.2177 -2.4464
   24PEO   H1F816650   3.311   1.444   5.756 -0.0488  0.9950  0.0636
   24PEO   O1F916651   3.469   1.366   5.877  0.5520 -0.7346  0.9611
   24PEO   H1FA16652   3.520   1.277   5.696 -1.4245 -2.3168 -0.6988
   24PEO   H1FB16653   3.456   1.165   5.811 -0.4305  0.2775 -0.2310
   24PEO   C1FC16654   3.523   1.252   5.803 -0.0883  0.0311 -0.0993
   24PEO   C1FD16655   3.653   1.197   5.859 -0.9535 -0.1528  0.4455
   24PEO   H1FE16656   3.698   1.127   5.787  1.5885  1.2258  0.5791
   24PEO   H1FF16657   3.716   1.285   5.877 -0.1931 -0.7485  0.7563
   24PEO   O20016658   3.636   1.122   5.981 -0.2925  0.1724 -0.7904
   24PEO   H20116659   3.837   1.059   5.950 -1.3066 -3.4256 -0.3612
   24PEO   H20216660   3.752   0.967   6.073  3.7201 -0.2089  3.0041
   24PEO   C20316661   3.767   1.069   6.034  0.3087 -0.4165  0.7921
   24PEO   C20416662   3.820   1.157   6.147  0.0843  0.0261  0.5698
   24PEO   H20516663   3.729   1.174   6.208 -1.0097 -3.4124  0.0782
   24PEO   H20616664   3.893   1.111   6.214 -1.1122  1.9143  3.4044
   24PEO   O20716665   3.870   1.285   6.097  0.0742  0.0545 -0.7317
   24PEO   H20816666   3.700   1.399   6.145  0.1643  1.7064 -0.8705
   24PEO   H20916667   3.833   1.492   6.084 -3.1279  1.9156 -0.1723
   24PEO   C20A16668   3.810   1.405   6.147  0.1932  1.0841  0.0633
   24PEO   C20B16669   3.854   1.424   6.298  0.4052 -0.5096 -0.1730
   24PEO   H20C16670   3.812   1.513   6.346 -2.2383 -1.4982 -0.4721
   24PEO   H20D16671   3.829   1.332   6.352  0.8050 -1.1297 -1.0192
   24PEO   O20E16672   3.999   1.437   6.314 -0.0923  0.2285 -0.1653
   24PEO   H20F16673   3.963   1.539   6.490  0.5602 -0.5006  1.9810
   24PEO   H21016674   4.136   1.520   6.443 -0.0396 -0.6928  1.5136
   24PEO   C21116675   4.038   1.471   6.447 -0.5327 -0.0798 -0.8809
   24PEO   C21216676   4.037   1.343   6.547  0.3987 -0.5982  0.4847
   24PEO   H21316677   4.037   1.378   6.651  0.0626 -0.4317  0.4300
   24PEO   H21416678   3.944   1.288   6.529  1.4469 -1.9812 -1.0461
   24PEO   O21516679   4.151   1.269   6.524 -0.4334 -0.3620  0.4518
   24PEO   H21616680   4.140   1.139   6.694  1.4670 -1.8075 -0.3001
   24PEO   H21716681   4.241   1.090   6.572  1.5596  1.7774  2.3191
   24PEO   C21816682   4.142   1.136   6.584  0.1615 -0.1821 -0.4176
   24PEO   C21916683   4.041   1.036   6.521  0.4639  0.4585  1.4402
   24PEO   H21A16684   4.042   1.046   6.412 -1.5546 -0.2470  1.3041
   24PEO   H21B16685   4.084   0.935   6.530  0.6147  0.3958  0.1430
   24PEO   O21C16686   3.907   1.033   6.571 -0.1098 -0.0411  0.1211
   24PEO   H21D16687   3.851   0.845   6.475  0.8547 -1.5373  2.3772
   24PEO   H21E16688   3.764   1.003   6.419 -1.4616 -1.9722  0.0981
   24PEO   C21F16689   3.812   0.945   6.499  0.3365 -1.0313 -0.2550
   24PEO   C22016690   3.693   0.915   6.590 -0.2033  0.6373 -0.1159
   24PEO   H22116691   3.644   0.828   6.546 -0.1039  0.4131  0.2140
   24PEO   H22216692   3.735   0.888   6.687 -0.5630  2.0688  0.4718
   24PEO   O22316693   3.623   1.035   6.601  0.1757 -0.6400 -0.6782
   24PEO   H22416694   3.476   0.945   6.714  1.3512 -0.5159 -1.2104
   24PEO   H22516695   3.439   0.957   6.546  0.3453 -0.7207  0.7500
   24PEO   C22616696   3.486   1.013   6.628  0.1695  0.9310 -0.2421
   24PEO   C22716697   3.423   1.152   6.645 -0.4317 -0.7619  0.2863
   24PEO   H22816698   3.340   1.148   6.717  0.5400  0.3654  1.5392
   24PEO   H22916699   3.499   1.202   6.708 -0.2206  0.7092 -1.0732
   24PEO   O22A16700   3.407   1.219   6.513  0.2224  0.1168 -0.8183
   24PEO   H22B16701   3.550   1.115   6.387  0.6269  0.8953  0.2823
   24PEO   H22C16702   3.585   1.292   6.429  0.1666 -0.4237 -0.0025
   24PEO   C22D16703   3.509   1.214   6.410 -0.7212  0.4456 -0.1025
   24PEO   C22E16704   3.433   1.251   6.283 -0.1516  0.1372  0.1441
   24PEO   H22F16705   3.364   1.334   6.304 -1.9054 -0.8995 -1.2481
   24PEO   H23016706   3.508   1.277   6.207  0.0039  0.2165  0.3235
   24PEO   O23116707   3.344   1.149   6.230 -0.5675 -0.0059 -0.1157
   24PEO   H23216708   3.387   1.205   6.033 -0.8404  0.7234 -0.7281
   24PEO   H23316709   3.263   1.296   6.106 -2.2044 -1.1762  2.8543
   24PEO   C23416710   3.300   1.193   6.099 -0.2691 -0.4260 -0.1699
   24PEO   C23516711   3.184   1.098   6.046  0.0234 -0.5432  0.2799
   24PEO   H23616712   3.130   1.055   6.131  0.9208  1.5982  2.0407
   24PEO   H23716713   3.106   1.155   5.994  0.5319 -1.3421 -1.4631
   24PEO   O23816714   3.231   1.008   5.939 -0.0924  0.4923  0.0590
   24PEO   H23916715   3.309   0.830   6.045  1.5217 -1.1393  1.2635
   24PEO   H23A16716   3.427   0.959   6.025 -0.1060 -0.3850 -1.4713
   24PEO   C23B16717   3.338   0.914   5.980 -0.6091 -1.1590  0.2000
   24PEO   C23C16718   3.392   0.854   5.849 -0.8119  0.2942  0.6455
   24PEO   H23D16719   3.481   0.796   5.876  1.3683  2.1922 -1.9285
   24PEO   H23E16720   3.305   0.803   5.803 -0.4751 -0.8233  1.2283
   24PEO   O23F16721   3.436   0.949   5.756 -1.2835 -0.4598  0.3223
   24PEO   H24016722   3.433   0.918   5.550  2.5611  0.3398 -0.6106
   24PEO   H24116723   3.466   0.775   5.633 -1.6809  0.4050 -1.8055
   24PEO   C24216724   3.487   0.882   5.639  0.5263 -0.0673  0.5424
   24PEO   C24316725   3.634   0.902   5.605  0.6099  0.2058  0.0964
   24PEO   H24416726   3.651   0.856   5.507 -1.8329 -0.0308 -0.2617
   24PEO   H24516727   3.660   1.009   5.612  1.8225  0.0382 -1.3387
   24PEO   O24616728   3.712   0.839   5.707 -0.0794  0.0502 -0.2988
   24PEO   H24716729   3.884   0.950   5.670 -2.6928  0.6356 -3.8040
   24PEO   H24816730   3.885   0.786   5.608 -1.1625  0.5125 -0.6994
   24PEO   C24916731   3.856   0.847   5.695  0.0056  0.5401 -0.3111
   24PEO   C24A16732   3.920   0.768   5.812  0.8335  0.2588 -0.2973
   24PEO   H24B16733   4.027   0.792   5.808  0.9101  0.3134  1.4673
   24PEO   H24C16734   3.884   0.803   5.910  2.3368  0.8875  0.0625
   24PEO   O24D16735   3.899   0.626   5.782  0.3572  0.2076  0.6456
   24PEO   H24E16736   3.697   0.606   5.734  0.5623  0.2536 -0.0399
   24PEO   H24F16737   3.730   0.600   5.902  1.4001  1.9581 -0.2945
   24PEO   C25016738   3.766   0.561   5.806  0.2197 -0.1328  0.0508
   24PEO   C25116739   3.767   0.403   5.798 -0.0872  0.0840 -0.4507
   24PEO   H25216740   3.662   0.375   5.817 -0.1971  0.6360 -0.2511
   24PEO   H25316741   3.795   0.377   5.695 -0.2335  1.4558 -0.8537
   24PEO   O25416742   3.855   0.348   5.903 -0.2038 -0.3313 -0.0340
   24PEO   H25516743   3.895   0.183   5.780  0.3107  2.0627 -0.3833
   24PEO   H25616744   3.772   0.155   5.898  0.5678 -0.0452  2.1270
   24PEO   C25716745   3.870   0.202   5.885  0.3699 -0.0986  0.0672
   24PEO   C25816746   3.977   0.155   5.982 -0.0531  0.0777 -0.3554
   24PEO   H25916747   3.986   0.046   5.970 -2.3497 -0.2240  0.1210
   24PEO   H25A16748   4.064   0.217   5.956 -1.0859  1.7636  0.1055
   24PEO   O25B16749   3.928   0.175   6.117  0.1544  0.1167 -0.2622
   24PEO   H25C16750   4.091   0.288   6.196  2.8423 -1.3398 -0.5843
   24PEO   H25D16751   4.116   0.113   6.167 -2.9465 -2.5589 -2.0339
   24PEO   C25E16752   4.045   0.188   6.205  0.5078 -0.2350  0.4226
   24PEO   C25F16753   4.003   0.152   6.349 -0.8090  0.0372 -0.9997
   24PEO   H26016754   4.079   0.193   6.417 -2.3072  0.6134  0.3770
   24PEO   H26116755   3.909   0.201   6.377  0.0842  0.6353  1.0999
   24PEO   O26216756   4.016   0.007   6.368 -0.3311 -0.0971  0.0604
   24PEO   H26316757   3.937  -0.072   6.188  1.0888 -2.2696 -0.4554
   24PEO   H26416758   3.826  -0.000   6.306 -0.3263 -1.1787 -2.2375
   24PEO   C26516759   3.917  -0.061   6.296  0.9671  0.3718 -0.6846
   24PEO   C26616760   3.920  -0.202   6.357 -0.5897  0.7840  0.0641
   24PEO   H26716761   3.844  -0.256   6.298 -0.7916 -0.3417  1.3011
   24PEO   H26816762   4.011  -0.262   6.356 -2.1712 -1.7649 -1.3398
   24PEO   O26916763   3.868  -0.180   6.489  0.0705  0.1183  0.6588
   24PEO   H26A16764   3.829  -0.272   6.668  0.6700  1.8746 -0.7411
   24PEO   H26B16765   3.943  -0.360   6.564 -1.6596 -2.6986 -1.5260
   24PEO   C26C16766   3.850  -0.301   6.565 -0.2716 -0.3824 -0.3573
   24PEO   C26D16767   3.732  -0.378   6.519  0.3407  0.5790  0.0885
   24PEO   H26E16768   3.703  -0.449   6.598 -0.3887  0.2246 -0.4821
   24PEO   H26F16769   3.643  -0.314   6.507 -0.8427  0.2259  4.8804
   24PEO   O27016770   3.770  -0.456   6.403  0.7314 -0.3016 -0.2184
   24PEO   H27116771   3.589  -0.550   6.425 -0.5337 -2.0122 -0.1026
   24PEO   H27216772   3.705  -0.610   6.303 -0.6515  1.1314 -1.8096
   24PEO   C27316773   3.660  -0.520   6.347 -0.9303  0.0275  0.2595
   24PEO   C27416774   3.612  -0.430   6.230  0.3016 -0.2583 -0.7620
   24PEO   H27516775   3.692  -0.398   6.162 -3.0753  1.5730 -4.2804
   24PEO   H27616776   3.538  -0.491   6.176  0.3552 -2.1568  1.1725
   24PEO   O27716777   3.541  -0.317   6.285 -0.2680  0.5835 -0.3665
   24PEO   H27816778   3.484  -0.239   6.099  1.8634 -1.5552 -0.7900
   24PEO   H27916779   3.642  -0.192   6.168 -0.0612 -2.0547 -0.5897
   24PEO   C27A16780   3.537  -0.214   6.192 -0.3231 -0.1507  0.1622
   24PEO   C27B16781   3.459  -0.099   6.269  0.2808  0.0009 -0.1122
   24PEO   H27C16782   3.395  -0.048   6.195  0.7704  0.7940 -0.0029
   24PEO   H27D16783   3.392  -0.135   6.349 -0.5364  0.6766 -0.4794
   24PEO   O27E16784   3.553  -0.003   6.324  0.0263  0.3168 -0.0504
   24PEO   H27F16785   3.595   0.193   6.363 -0.7761  1.8167  0.2621
   24PEO   H28016786   3.426   0.171   6.296  0.6023  3.1552 -1.2061
   24PEO   C28116787   3.532   0.143   6.288  0.0786  0.1901  0.5857
   24PEO   C28216788   3.582   0.168   6.145  0.0987  0.6903 -0.0304
   24PEO   H28316789   3.615   0.270   6.123 -0.9940  0.5873 -2.4536
   24PEO   H28416790   3.665   0.101   6.117  0.2540  0.7572  0.2681
   24PEO   O28516791   3.472   0.131   6.062 -0.5859  0.1585 -0.4508
   24PEO   H28616792   3.583   0.061   5.893 -1.0174 -1.7461 -1.8434
   24PEO   H28716793   3.511   0.215   5.864  1.8415 -0.9195 -1.6195
   24PEO   C28816794   3.493   0.119   5.915  0.4257  0.0015 -0.2923
   24PEO   C28916795   3.367   0.042   5.854  0.3060 -0.0624  0.0288
   24PEO   H28A16796   3.380   0.014   5.748 -1.7373  0.6844 -0.4867
   24PEO   H28B16797   3.339  -0.040   5.921  0.6320  0.2437  0.5418
   24PEO   O28C16798   3.249   0.129   5.842  0.2379  0.3688 -0.1912
   24PEO   H28D16799   3.093  -0.000   5.840  2.1511 -1.1316  0.6338
   24PEO   H28E16800   3.174  -0.001   5.692  2.1001  0.7425  0.2428
   24PEO   C28F16801   3.143   0.069   5.771  0.5635 -0.1442  0.4481
   24PEO   C29016802   3.042   0.187   5.724 -0.5475 -0.7063  0.7670
   24PEO   H29116803   2.944   0.142   5.706 -0.8193  0.0279  0.3919
   24PEO   H29216804   3.031   0.255   5.810  2.4882 -1.8003  2.1719
   24PEO   O29316805   3.084   0.249   5.605 -0.4260  0.1633  0.2148
   24PEO   H29416806   2.998   0.437   5.582 -1.8414  1.0692  0.5788
   24PEO   H29516807   2.881   0.304   5.570  0.3057  0.5143  1.6856
   24PEO   C29616808   2.985   0.334   5.548  0.0516  0.7289  0.7600
   24PEO   C29716809   2.996   0.336   5.390 -0.3112 -0.3187  0.4760
   24PEO   H29816810   3.025   0.234   5.360 -2.7717 -0.9860  0.0951
   24PEO   H29916811   2.902   0.359   5.338 -1.2359  0.5387  2.4017
   24PEO   O29A16812   3.101   0.425   5.345 -0.0468  1.3277 -0.3027
   24PEO   H29B16813   3.168   0.530   5.170 -1.5196  2.2233  0.5096
   24PEO   H29C16814   2.989   0.523   5.202 -0.8670 -0.4711  0.8971
   24PEO   C29D16815   3.085   0.470   5.209 -0.4134  0.1756 -0.1282
   24PEO   C29E16816   3.077   0.351   5.110 -0.0950  0.4450 -0.0593
   24PEO   H29F16817   2.975   0.309   5.104  0.9312 -2.0471 -1.6323
   24PEO   H2A016818   3.101   0.394   5.012  1.6619  1.1517  0.6507
   24PEO   O2A116819   3.172   0.246   5.146  0.7470 -0.3612 -0.1062
   24PEO   H2A216820   3.180   0.176   4.945  0.1510  0.1621 -0.1352
   24PEO   H2A316821   3.080   0.085   5.056 -0.4543  0.7775 -1.6614
   24PEO   C2A416822   3.175   0.139   5.048 -0.2572  0.7173  0.0436
   24PEO   C2A516823   3.310   0.050   5.077 -0.5037  0.0753 -0.2863
   24PEO   H2A616824   3.355   0.072   5.175 -0.4051 -0.3014 -0.2450
   24PEO   H2A716825   3.283  -0.057   5.077 -0.7850  0.1365 -1.3611
   24PEO   O2A816826   3.403   0.076   4.976 -0.6346 -0.1266  0.5847
   24PEO   H2A916827   3.481  -0.117   4.997  1.7340  0.4296 -0.0510
   24PEO   H2AA16828   3.591   0.012   5.050 -3.4070  0.6740  4.3398
   24PEO   C2AB16829   3.519  -0.017   4.972  0.7501  0.8118 -0.0621
   24PEO   C2AC16830   3.572  -0.008   4.822  0.2008 -0.4205  0.0890
   24PEO   H2AD16831   3.561   0.100   4.803 -1.1462 -0.4463  0.5847
   24PEO   H2AE16832   3.674  -0.048   4.821 -0.3371 -1.8855  0.0787
   24PEO   O2AF16833   3.491  -0.100   4.742  0.1597 -0.3965  0.3436
   24PEO   H2B016834   3.604  -0.079   4.561  0.6303 -0.4994 -0.4553
   24PEO   H2B116835   3.457   0.015   4.579 -0.1242 -0.5446 -0.3731
   24PEO   C2B216836   3.502  -0.083   4.602  0.8280 -0.0070  0.0915
   24PEO   C2B316837   3.437  -0.200   4.513 -0.1804  0.3459  0.6469
   24PEO   H2B416838   3.424  -0.150   4.416 -2.7792  1.6585  1.5743
   24PEO   H2B516839   3.512  -0.279   4.498  0.4236  0.5501  2.3773
   24PEO   O2B616840   3.312  -0.254   4.569  0.3241 -0.0875  0.2354
   24PEO   H2B716841   3.231  -0.257   4.377 -1.0946  1.3743  0.4248
   24PEO   H2B816842   3.134  -0.338   4.505  0.3163 -1.3208  0.9438
   24PEO   C2B916843   3.235  -0.322   4.465 -0.4830 -0.3403 -0.8113
   24PEO   C2BA16844   3.289  -0.458   4.419 -0.3025 -0.0080 -0.4678
   24PEO   H2BB16845   3.269  -0.462   4.311 -2.1777  0.8455 -0.1961
   24PEO   H2BC16846   3.396  -0.457   4.444 -0.2026  1.0209 -0.8647
   24PEO   O2BD16847   3.221  -0.564   4.491 -0.5482 -0.5397  0.0004
   24PEO   H2BE16848   3.125  -0.557   4.480 -0.5316  0.0483  0.1964
   25PEO   H00116849   5.068   2.692   4.296  0.3173 -2.7593 -1.9475
   25PEO   H00216850   5.221   2.703   4.409  0.1230 -1.3407 -0.2676
   25PEO   H00316851   5.237   2.736   4.238  0.4568  1.9156  0.7261
   25PEO   C00416852   5.177   2.681   4.311  0.4896 -0.1516 -0.7238
   25PEO   C00516853   5.196   2.531   4.277 -0.5215  0.3083  0.4975
   25PEO   H00616854   5.121   2.468   4.326  1.0670  0.3158  3.1388
   25PEO   H00716855   5.182   2.518   4.168 -0.4274  2.0567  0.2439
   25PEO   O00816856   5.331   2.498   4.319  0.3805  0.3119 -0.0932
   25PEO   H00916857   5.308   2.286   4.268  0.1983  2.2679 -1.6652
   25PEO   H00A16858   5.271   2.332   4.435  0.2633 -0.6913  0.0050
   25PEO   C00B16859   5.338   2.351   4.350  0.0067  0.3413  0.0195
   25PEO   C00C16860   5.485   2.316   4.392 -0.2604  0.1470 -0.4270
   25PEO   H00D16861   5.532   2.398   4.449 -1.0936  1.5735 -1.6963
   25PEO   H00E16862   5.477   2.232   4.462 -0.3337  0.2100 -0.3588
   25PEO   O00F16863   5.564   2.278   4.279 -0.0243  0.4074  0.0873
   25PEO   H01016864   5.765   2.205   4.211  2.5242 -1.9125  2.4265
   25PEO   H01116865   5.717   2.192   4.384 -3.8361 -0.0967  0.5125
   25PEO   C01216866   5.710   2.254   4.293  0.7836  0.2407  0.1195
   25PEO   C01316867   5.777   2.391   4.330  0.0480 -0.7088 -0.0451
   25PEO   H01416868   5.750   2.431   4.429  2.1377 -0.7585  0.6063
   25PEO   H01516869   5.884   2.365   4.332  0.0647 -0.8603  3.4819
   25PEO   O01616870   5.755   2.493   4.225  0.6952  0.2648 -0.2879
   25PEO   H01716871   5.595   2.546   4.346 -0.8430  3.1338  0.3513
   25PEO   H01816872   5.568   2.589   4.166 -1.9003 -0.1465  1.2781
   25PEO   C01916873   5.638   2.577   4.249  0.0904  0.2320 -0.2506
   25PEO   C01A16874   5.676   2.725   4.291 -0.3176 -0.1138 -0.8655
   25PEO   H01B16875   5.581   2.777   4.311 -0.7857 -1.4111  0.4543
   25PEO   H01C16876   5.735   2.723   4.384 -3.7944 -0.4785  1.5106
   25PEO   O01D16877   5.754   2.781   4.187 -0.1748 -0.3867  0.7547
   25PEO   H01E16878   5.861   2.914   4.293 -2.4568  0.2711  1.1574
   25PEO   H01F16879   5.714   2.978   4.216  0.2027 -0.0445  0.6017
   25PEO   C02016880   5.800   2.911   4.201 -0.1632 -0.3044 -0.4328
   25PEO   C02116881   5.885   2.956   4.085 -0.1156 -0.3145  0.6291
   25PEO   H02216882   5.969   3.016   4.124  1.0001 -2.1478  1.1310
   25PEO   H02316883   5.927   2.864   4.043  0.3384 -0.0684  0.5384
   25PEO   O02416884   5.807   3.023   3.979 -0.2398 -0.3953 -0.2187
   25PEO   H02516885   5.944   2.983   3.822 -1.7654 -0.1638 -0.0924
   25PEO   H02616886   5.973   3.131   3.918 -2.4175  1.2333  0.7004
   25PEO   C02716887   5.895   3.069   3.871 -1.1792 -0.0163  0.2391
   25PEO   C02816888   5.838   3.153   3.756  0.1027  0.1094 -0.2540
   25PEO   H02916889   5.779   3.240   3.788 -0.3720  0.2970 -1.5821
   25PEO   H02A16890   5.918   3.182   3.687 -0.3429 -2.8961 -2.2413
   25PEO   O02B16891   5.746   3.062   3.688  0.2885  0.6058  0.2415
   25PEO   H02C16892   5.732   3.137   3.499 -1.9074  0.0613 -0.8485
   25PEO   H02D16893   5.643   3.225   3.625 -1.2124 -0.7187  1.0231
   25PEO   C02E16894   5.668   3.125   3.588 -0.6647 -0.2217  0.0332
   25PEO   C02F16895   5.542   3.039   3.554  0.4393 -0.6854  0.2051
   25PEO   H03016896   5.485   3.039   3.648 -0.3830  1.1493 -0.2543
   25PEO   H03116897   5.478   3.083   3.476 -1.3479 -1.2351  1.3046
   25PEO   O03216898   5.573   2.901   3.522  0.0048 -0.1917  0.0448
   25PEO   H03316899   5.685   2.951   3.348  1.0463 -0.2467  0.8423
   25PEO   H03416900   5.521   2.908   3.311  0.0788 -2.0125 -0.3416
   25PEO   C03516901   5.602   2.888   3.382  0.3108  0.2988  0.0976
   25PEO   C03616902   5.655   2.745   3.345 -0.0248  0.5057  0.0789
   25PEO   H03716903   5.686   2.747   3.240 -0.6880  1.5224 -0.1136
   25PEO   H03816904   5.740   2.706   3.402 -0.1725 -2.1366 -1.3802
   25PEO   O03916905   5.551   2.647   3.370 -0.1063  0.5407  0.1104
   25PEO   H03A16906   5.605   2.541   3.196 -0.0485  1.1063 -1.3382
   25PEO   H03B16907   5.454   2.634   3.184  0.0951 -0.7059 -0.3092
   25PEO   C03C16908   5.516   2.574   3.252  0.0993 -0.4752 -0.1075
   25PEO   C03D16909   5.434   2.457   3.296  0.0290  0.1374  0.3326
   25PEO   H03E16910   5.362   2.492   3.371  2.4015 -0.7772  3.2101
   25PEO   H03F16911   5.382   2.413   3.209 -0.1428  0.7814  0.1076
   25PEO   O04016912   5.512   2.354   3.351 -0.0763  0.4065 -0.2793
   25PEO   H04116913   5.352   2.237   3.428 -0.3771  1.8504  1.2811
   25PEO   H04216914   5.480   2.273   3.547  0.8150 -0.7317 -0.3956
   25PEO   C04316915   5.460   2.248   3.441  0.1280 -0.3783 -0.3577
   25PEO   C04416916   5.544   2.118   3.423  0.1049  0.3620  1.1297
   25PEO   H04516917   5.475   2.033   3.436  1.4624 -0.8797  0.5572
   25PEO   H04616918   5.573   2.108   3.317 -0.6767 -0.1437  0.9532
   25PEO   O04716919   5.655   2.112   3.512  0.5227  0.3125 -0.4822
   25PEO   H04816920   5.607   1.931   3.603 -1.2366  0.2084 -1.3970
   25PEO   H04916921   5.530   2.085   3.675 -1.0715  1.6314 -3.6095
   25PEO   C04A16922   5.619   2.037   3.633 -0.4436 -0.0994 -0.5802
   25PEO   C04B16923   5.733   2.058   3.740  0.7111  0.5442 -0.4308
   25PEO   H04C16924   5.718   1.980   3.816 -2.5644  1.4409 -0.0136
   25PEO   H04D16925   5.833   2.056   3.693  1.1750 -2.1443  0.5100
   25PEO   O04E16926   5.719   2.187   3.807  0.1367 -0.2190 -0.7606
   25PEO   H04F16927   5.924   2.246   3.806  0.6437  1.4722  1.1942
   25PEO   H05016928   5.867   2.175   3.957  0.8096  0.9149  0.2871
   25PEO   C05116929   5.837   2.239   3.873 -0.3018 -0.0896 -0.1195
   25PEO   C05216930   5.826   2.374   3.937 -0.1925  0.5172 -0.6490
   25PEO   H05316931   5.729   2.377   3.990  0.3441 -1.9407  0.6282
   25PEO   H05416932   5.911   2.395   4.003 -1.1794  0.9506  0.5357
   25PEO   O05516933   5.841   2.467   3.833  0.4811  0.1239 -0.3567
   25PEO   H05616934   5.915   2.605   3.980 -0.7894 -1.0428  0.2432
   25PEO   H05716935   5.743   2.621   3.911 -0.3442 -0.5994  0.3544
   25PEO   C05816936   5.849   2.598   3.893 -0.3948 -0.4712 -0.1112
   25PEO   C05916937   5.902   2.697   3.789 -0.3251  0.0721  0.3221
   25PEO   H05A16938   5.872   2.681   3.684 -0.4216  0.8606  0.2242
   25PEO   H05B16939   5.873   2.802   3.806  1.9021  0.4905  2.0951
   25PEO   O05C16940   6.048   2.694   3.792 -0.0553  0.1182 -0.4314
   25PEO   H05D16941   6.089   2.608   3.602  1.1921  0.9152 -0.7970
   25PEO   H05E16942   6.061   2.490   3.743  0.9043  0.2887  0.1647
   25PEO   C05F16943   6.104   2.585   3.708  0.6812  0.0129 -0.9085
   25PEO   C06016944   6.249   2.577   3.736 -0.1894 -0.2294  0.4816
   25PEO   H06116945   6.275   2.578   3.843 -0.1893 -0.2374  0.4818
   25PEO   H06216946   6.287   2.479   3.704 -0.5670 -0.2613  0.1212
   25PEO   O06316947   6.317   2.685   3.647  0.3679 -0.1424  0.0500
   25PEO   H06416948   6.513   2.747   3.607 -1.3372 -0.2020 -2.2536
   25PEO   H06516949   6.503   2.623   3.733  2.2874  1.8209 -1.0642
   25PEO   C06616950   6.452   2.711   3.691 -0.0102  0.6822 -0.8592
   25PEO   C06716951   6.455   2.807   3.805  0.2023  0.0291  0.5847
   25PEO   H06816952   6.392   2.763   3.885  3.0399 -2.9111  1.4206
   25PEO   H06916953   6.560   2.825   3.833  0.9203 -0.1984 -1.7908
   25PEO   O06A16954   6.415   2.938   3.761 -0.3588  0.0593 -0.3576
   25PEO   H06B16955   6.216   2.958   3.848  0.1093  0.7153  0.3023
   25PEO   H06C16956   6.213   2.892   3.694 -0.2642 -0.8658  1.2513
   25PEO   C06D16957   6.270   2.966   3.752 -0.0629 -0.1082  0.1291
   25PEO   C06E16958   6.249   3.111   3.695 -0.3231 -0.6628  0.2867
   25PEO   H06F16959   6.305   3.134   3.603 -0.0852  2.4207  1.0999
   25PEO   H07016960   6.141   3.113   3.677 -0.2814  0.2842  0.1141
   25PEO   O07116961   6.276   3.224   3.788  0.1313  0.2125 -0.1402
   25PEO   H07216962   6.172   3.352   3.657 -1.3314  1.3495  1.3138
   25PEO   H07316963   6.345   3.393   3.701 -0.0867 -0.3564 -0.9296
   25PEO   C07416964   6.247   3.356   3.737  0.2477 -0.3481  0.0045
   25PEO   C07516965   6.188   3.452   3.849  0.0523  0.0089 -0.2545
   25PEO   H07616966   6.224   3.416   3.946  0.0881 -1.0916 -0.6614
   25PEO   H07716967   6.230   3.553   3.836  0.8942 -0.2327  0.4846
   25PEO   O07816968   6.045   3.464   3.850 -0.2714 -0.3415 -0.1198
   25PEO   H07916969   6.024   3.605   3.704  2.1132  0.8821  0.9122
   25PEO   H07A16970   6.005   3.669   3.873  1.2405 -0.9360  0.1448
   25PEO   C07B16971   5.984   3.586   3.805  0.6450 -0.7410  0.0823
   25PEO   C07C16972   5.830   3.567   3.808 -0.7341  0.2076 -0.1489
   25PEO   H07D16973   5.783   3.649   3.752  1.2070  2.0513  0.7726
   25PEO   H07E16974   5.819   3.463   3.773 -0.9669 -0.2426  1.2136
   25PEO   O07F16975   5.771   3.557   3.941 -0.6692  0.4313  0.1386
   25PEO   H08016976   5.755   3.760   3.962  1.2894 -0.2671 -0.8585
   25PEO   H08116977   5.880   3.689   4.069  0.0674 -1.1207  0.5180
   25PEO   C08216978   5.782   3.672   4.023  0.0379  0.0128  0.1330
   25PEO   C08316979   5.690   3.643   4.144 -0.4660  0.1170 -0.3887
   25PEO   H08416980   5.704   3.535   4.159 -3.0005 -0.0558  1.3114
   25PEO   H08516981   5.718   3.692   4.238 -0.2084 -1.9263  0.6438
   25PEO   O08616982   5.553   3.672   4.119 -0.5999 -0.1254 -0.2457
   25PEO   H08716983   5.494   3.739   4.309  0.0481 -0.8674  1.2387
   25PEO   H08816984   5.488   3.579   4.308 -0.4108  1.4535  1.4236
   25PEO   C08916985   5.467   3.660   4.237 -0.6009  0.3115  0.1385
   25PEO   C08A16986   5.320   3.669   4.186  0.0064 -0.0679 -0.3061
   25PEO   H08B16987   5.315   3.620   4.088 -2.1278  1.4102 -1.0226
   25PEO   H08C16988   5.258   3.608   4.253 -1.3155  4.1295  2.7609
   25PEO   O08D16989   5.271   3.804   4.171 -0.0587  0.2519  0.1559
   25PEO   H08E16990   5.096   3.803   4.288  0.6324 -1.5428  0.3782
   25PEO   H08F16991   5.081   3.733   4.133  2.7601 -1.6501 -0.6356
   25PEO   C09016992   5.128   3.818   4.183 -1.0087  0.2252  0.0726
   25PEO   C09116993   5.071   3.949   4.136 -0.0998 -0.1489  0.3847
   25PEO   H09216994   4.986   3.985   4.197  0.0458  0.2844  0.3322
   25PEO   H09316995   5.146   4.029   4.138 -1.0917  0.7805  1.3399
   25PEO   O09416996   5.025   3.934   3.999 -0.6093 -0.7406 -0.2909
   25PEO   H09516997   4.965   4.041   3.824 -0.5198  2.4496 -1.1065
   25PEO   H09616998   5.066   4.137   3.932 -0.0689 -0.2824  1.9282
   25PEO   C09716999   4.988   4.060   3.930  0.3806 -0.7772 -0.6176
   25PEO   C09817000   4.857   4.115   3.993  0.1236 -0.2715 -0.4266
   25PEO   H09917001   4.779   4.149   3.924 -0.4565 -0.8662 -0.0825
   25PEO   H09A17002   4.807   4.027   4.038  0.1146  0.3499  0.8134
   25PEO   O09B17003   4.896   4.216   4.090  0.6755  0.0131 -0.1555
   25PEO   H09C17004   4.844   4.337   4.246  2.4559  0.9176 -2.8495
   25PEO   H09D17005   4.736   4.195   4.213  0.5761  0.1037 -1.5978
   25PEO   C09E17006   4.793   4.278   4.168  0.7589  0.1765 -1.2380
   25PEO   C09F17007   4.708   4.371   4.080 -0.2663  1.0123 -0.1786
   25PEO   H0A017008   4.651   4.433   4.151 -0.0600 -0.1366  1.0431
   25PEO   H0A117009   4.774   4.436   4.020  1.3546 -1.1511 -0.8723
   25PEO   O0A217010   4.614   4.300   4.012  0.3625  0.4151 -0.6627
   25PEO   H0A317011   4.628   4.417   3.835  0.2701  0.5059  1.0641
   25PEO   H0A417012   4.482   4.445   3.925  2.5716  2.0375  1.3984
   25PEO   C0A517013   4.555   4.366   3.899  0.0551 -0.0804  0.3622
   25PEO   C0A617014   4.480   4.263   3.811  0.1820 -0.0744  0.2048
   25PEO   H0A717015   4.404   4.200   3.859 -0.6750  0.0707 -0.9209
   25PEO   H0A817016   4.413   4.315   3.742 -0.9474 -0.4853  0.9536
   25PEO   O0A917017   4.580   4.175   3.736 -0.0467  0.1100  0.3222
   25PEO   H0AA17018   4.736   4.162   3.598 -0.2017 -0.8617  0.9734
   25PEO   H0AB17019   4.721   4.315   3.666 -3.2508  2.0398  0.5239
   25PEO   C0AC17020   4.658   4.234   3.626 -0.0977 -0.2991 -0.1458
   25PEO   C0AD17021   4.572   4.294   3.501  0.4879 -0.6908 -0.3999
   25PEO   H0AE17022   4.531   4.382   3.552  0.1833 -0.1016 -1.6183
   25PEO   H0AF17023   4.639   4.315   3.417 -0.7336  0.4117 -1.1346
   25PEO   O0B017024   4.458   4.208   3.471  1.0893  0.4437 -0.0249
   25PEO   H0B117025   4.572   4.098   3.337 -1.1379 -1.9020  0.0819
   25PEO   H0B217026   4.477   4.226   3.261  2.5061 -0.8367 -1.4412
   25PEO   C0B317027   4.474   4.148   3.339 -0.3925 -0.3320 -0.9477
   25PEO   C0B417028   4.358   4.049   3.312  0.2703  0.1676 -0.2127
   25PEO   H0B517029   4.391   3.990   3.225  0.7038  0.8664 -0.5314
   25PEO   H0B617030   4.333   3.983   3.396  0.4517  0.0162 -0.2788
   25PEO   O0B717031   4.237   4.130   3.284 -0.6825 -0.0621  0.3953
   25PEO   H0B817032   4.111   3.969   3.348 -0.5474 -1.4785 -1.2634
   25PEO   H0B917033   4.141   3.980   3.177  1.3752  0.9446  0.6955
   25PEO   C0BA17034   4.126   4.042   3.267  0.4246  0.6679  0.7386
   25PEO   C0BB17035   3.999   4.128   3.241  0.0385  0.1744  0.3355
   25PEO   H0BC17036   4.015   4.191   3.152 -0.7821 -2.6956 -2.0018
   25PEO   H0BD17037   3.909   4.067   3.219  0.8107 -0.0517 -2.6474
   25PEO   O0BE17038   3.968   4.199   3.359  0.6021 -0.6211 -0.4615
   25PEO   H0BF17039   4.008   4.402   3.297  2.3191  1.5149  1.0025
   25PEO   H0C017040   4.118   4.333   3.418 -0.0287  1.4729  2.4320
   25PEO   C0C117041   4.014   4.336   3.385  0.6708 -0.3807 -0.2452
   25PEO   C0C217042   3.934   4.405   3.503  0.0480 -0.1064 -0.2866
   25PEO   H0C317043   3.975   4.364   3.597 -0.5272 -1.5097 -0.6135
   25PEO   H0C417044   3.948   4.512   3.482 -1.7029  0.4092  0.9713
   25PEO   O0C517045   3.795   4.376   3.493  0.4742 -0.7872 -0.3910
   25PEO   H0C617046   3.713   4.529   3.625 -2.3923  0.2688 -1.0919
   25PEO   H0C717047   3.789   4.395   3.703 -0.4212  0.2240  0.3013
   25PEO   C0C817048   3.726   4.420   3.617  0.0931  0.4039 -0.0235
   25PEO   C0C917049   3.594   4.340   3.637 -0.0871 -0.2519  0.4367
   25PEO   H0CA17050   3.626   4.240   3.670  0.2570  0.3135  1.9016
   25PEO   H0CB17051   3.539   4.385   3.720  1.0700  0.8598  0.6274
   25PEO   O0CC17052   3.517   4.344   3.516 -0.0128  0.4510 -0.0421
   25PEO   H0CD17053   3.343   4.348   3.615  0.6344 -0.1145 -0.2722
   25PEO   H0CE17054   3.424   4.187   3.602  0.5238 -0.9587 -0.4657
   25PEO   C0CF17055   3.399   4.280   3.549  0.1293 -0.8041 -0.0154
   25PEO   C0D017056   3.306   4.238   3.432 -0.1347  0.0383  0.3964
   25PEO   H0D117057   3.352   4.158   3.372 -0.2403  0.3089 -0.0497
   25PEO   H0D217058   3.219   4.186   3.474 -0.5985  1.1236  0.8018
   25PEO   O0D317059   3.257   4.349   3.363  0.3433 -0.4889  0.1441
   25PEO   H0D417060   3.084   4.274   3.319  0.4960 -1.7936 -0.8700
   25PEO   H0D517061   3.205   4.254   3.192  0.8068  1.1044  0.0810
   25PEO   C0D617062   3.164   4.325   3.265  0.1859  0.2998  0.5372
   25PEO   C0D717063   3.128   4.462   3.200  0.2464  0.1213  0.4049
   25PEO   H0D817064   3.220   4.523   3.204  1.4972 -1.7391  1.9420
   25PEO   H0D917065   3.084   4.449   3.100 -1.4585 -1.3167  1.3076
   25PEO   O0DA17066   3.021   4.523   3.286 -0.0604  0.1132 -0.2832
   25PEO   H0DB17067   2.854   4.648   3.294 -0.1704  0.2916 -2.1067
   25PEO   H0DC17068   2.895   4.608   3.130  1.2466 -0.7061 -0.5069
   25PEO   C0DD17069   2.940   4.634   3.227  1.0003  0.3971 -0.6674
   25PEO   C0DE17070   3.031   4.751   3.214 -0.0705 -0.1534 -0.1349
   25PEO   H0DF17071   2.974   4.845   3.221  0.2297 -0.1140  3.9848
   25PEO   H0E017072   3.109   4.755   3.290 -2.2742  2.9809  2.2278
   25PEO   O0E117073   3.095   4.747   3.084 -0.0593  0.2437 -0.2250
   25PEO   H0E217074   3.294   4.776   3.145 -1.3721 -2.0860  0.0326
   25PEO   H0E317075   3.197   4.926   3.116  2.0820 -0.1120  1.6639
   25PEO   C0E417076   3.215   4.823   3.084  0.3403  0.2069 -0.5572
   25PEO   C0E517077   3.253   4.819   2.934 -0.1623 -0.8422 -0.0621
   25PEO   H0E617078   3.360   4.841   2.938 -0.3085 -0.2693  2.8780
   25PEO   H0E717079   3.225   4.724   2.885 -1.6082  0.5740 -2.1477
   25PEO   O0E817080   3.182   4.925   2.870 -0.6134 -0.3091 -0.4185
   25PEO   H0E917081   3.119   4.994   2.687 -0.0752  1.3100  2.6807
   25PEO   H0EA17082   3.170   4.827   2.685 -1.7730 -0.2194  1.0102
   25PEO   C0EB17083   3.194   4.925   2.729 -0.0671 -0.2539  0.2555
   25PEO   C0EC17084   3.329   4.990   2.687  0.4045  0.3428  0.0211
   25PEO   H0ED17085   3.401   4.965   2.766  1.0431 -2.4851 -1.3143
   25PEO   H0EE17086   3.358   4.941   2.593  0.2706 -0.5021  0.4035
   25PEO   O0EF17087   3.303   5.129   2.656  0.0865 -0.6303  0.1765
   25PEO   H0F017088   3.480   5.144   2.562 -0.7514 -0.6725 -0.0598
   25PEO   H0F117089   3.482   5.241   2.713  1.1800  2.8927 -1.8744
   25PEO   C0F217090   3.421   5.208   2.628  0.2012  0.5789 -0.3812
   25PEO   C0F317091   3.385   5.327   2.549 -0.1275  0.3977  0.3926
   25PEO   H0F417092   3.286   5.360   2.584  0.3835 -0.6348  3.0295
   25PEO   H0F517093   3.456   5.408   2.572  2.3323 -1.1704 -1.2571
   25PEO   O0F617094   3.386   5.296   2.411  0.4965  0.2569  0.2132
   25PEO   H0F717095   3.436   5.482   2.355  0.1369 -0.0794  0.8677
   25PEO   H0F817096   3.256   5.459   2.369 -1.7622 -3.1019  1.7168
   25PEO   C0F917097   3.351   5.414   2.337 -0.3181  0.6693  0.1160
   25PEO   C0FA17098   3.350   5.376   2.186  0.0792 -0.0444 -0.4401
   25PEO   H0FB17099   3.318   5.271   2.174  1.3802 -0.4063 -0.8773
   25PEO   H0FC17100   3.287   5.446   2.129 -0.0199 -0.0794 -0.3739
   25PEO   O0FD17101   3.479   5.373   2.143 -0.1964  0.2007 -0.5011
   25PEO   H0FE17102   3.495   5.576   2.177 -2.1091 -1.6751  0.4784
   25PEO   H0FF17103   3.500   5.512   2.005 -0.2229 -0.8027  0.1019
   25PEO   C10017104   3.537   5.501   2.108  0.3151 -0.0157  0.0096
   25PEO   C10117105   3.682   5.501   2.101 -0.0591  0.5318 -0.6594
   25PEO   H10217106   3.718   5.594   2.057  1.5277  0.2788  0.0420
   25PEO   H10317107   3.723   5.481   2.202 -0.3464  2.8305 -0.0410
   25PEO   O10417108   3.726   5.401   2.012 -0.1881  0.5345 -0.1650
   25PEO   H10517109   3.923   5.415   2.072  1.2515  2.9880 -0.9106
   25PEO   H10617110   3.891   5.517   1.937  1.4918  1.6566  1.9720
   25PEO   C10717111   3.862   5.420   1.981  0.4393  0.7339 -0.5546
   25PEO   C10817112   3.905   5.300   1.901  0.1599 -0.7232  1.0317
   25PEO   H10917113   4.015   5.296   1.893  0.1097 -0.7726  0.3131
   25PEO   H10A17114   3.872   5.216   1.963 -1.6676 -1.5706 -0.9842
   25PEO   O10B17115   3.837   5.298   1.775 -0.4972  0.1875 -0.1975
   25PEO   H10C17116   3.824   5.502   1.722 -0.8747 -0.9413  1.4476
   25PEO   H10D17117   3.802   5.384   1.592  2.9126 -3.8033 -0.3524
   25PEO   C10E17118   3.861   5.407   1.682  0.6403  0.0481  0.4008
   25PEO   C10F17119   4.007   5.406   1.620 -0.0880  0.2608  0.7573
   25PEO   H11017120   4.053   5.307   1.607  0.0718  0.3592  0.5694
   25PEO   H11117121   4.002   5.468   1.529  0.9546  1.7168  1.6583
   25PEO   O11217122   4.091   5.462   1.714 -0.6951 -0.5395  0.1636
   25PEO   H11317123   4.253   5.508   1.578  1.7227 -0.7844  0.0169
   25PEO   H11417124   4.247   5.351   1.671 -0.9394  0.0176  0.2596
   25PEO   C11517125   4.225   5.459   1.672  0.1401  0.2427  0.1181
   25PEO   C11617126   4.323   5.524   1.778  0.3646 -0.1722  0.0811
   25PEO   H11717127   4.413   5.461   1.779  0.2720 -0.3418 -1.0631
   25PEO   H11817128   4.350   5.627   1.751 -1.3323 -0.6652 -4.2438
   25PEO   O11917129   4.267   5.520   1.906  1.3015  1.0336 -0.8627
   25PEO   H11A17130   4.096   5.630   1.927  0.5141 -1.2416 -0.2334
   25PEO   H11B17131   4.253   5.728   1.929  2.7242 -0.6828 -1.0168
   25PEO   C11C17132   4.202   5.634   1.955  0.2828  0.9437  0.5435
   25PEO   C11D17133   4.188   5.618   2.109  0.1520  0.1779  0.2032
   25PEO   H11E17134   4.121   5.691   2.156  1.7691  0.9811  1.3686
   25PEO   H11F17135   4.163   5.514   2.137 -0.1610  0.4299  0.8726
   25PEO   O12017136   4.309   5.636   2.173  0.1004  0.0290  0.4537
   25PEO   H12117137   4.260   5.531   2.353  1.9130 -2.6637 -1.1905
   25PEO   H12217138   4.274   5.712   2.358 -1.2252 -1.3587  0.9688
   25PEO   C12317139   4.314   5.619   2.315 -0.2838 -0.5973  0.1529
   25PEO   C12417140   4.465   5.595   2.347  0.1966 -0.2079 -0.3910
   25PEO   H12517141   4.454   5.567   2.453 -2.2808  0.7830 -0.3246
   25PEO   H12617142   4.518   5.517   2.290  2.2626 -0.5644  1.8658
   25PEO   O12717143   4.519   5.724   2.339 -0.4739 -0.4636  0.1263
   25PEO   H12817144   4.534   5.767   2.131  0.4319 -0.2719 -0.3796
   25PEO   H12917145   4.664   5.677   2.184  0.5003 -0.1339 -0.1866
   25PEO   C12A17146   4.595   5.755   2.221  0.0192 -0.5765 -0.1385
   25PEO   C12B17147   4.680   5.882   2.247 -0.1228  0.2713 -0.0027
   25PEO   H12C17148   4.635   5.979   2.222  1.4395  1.2426  0.7432
   25PEO   H12D17149   4.691   5.878   2.356  0.0694 -2.5889 -0.0581
   25PEO   O12E17150   4.814   5.861   2.198 -0.0505  0.1955 -0.7120
   25PEO   H12F17151   4.929   5.931   2.034 -0.0603  0.8916 -3.0391
   25PEO   H13017152   4.755   5.956   2.011  0.1947 -0.5855  0.1000
   25PEO   C13117153   4.830   5.889   2.055  0.8318  0.0453 -0.0094
   25PEO   C13217154   4.826   5.746   1.988  0.1026  0.4113 -0.3204
   25PEO   H13317155   4.903   5.744   1.910  1.3580  0.5267  0.8785
   25PEO   H13417156   4.845   5.668   2.063 -0.1173  1.7013  1.1374
   25PEO   O13517157   4.695   5.734   1.934 -0.1502 -0.0398  0.4650
   25PEO   H13617158   4.593   5.565   1.863 -0.9141  2.0367  1.1325
   25PEO   H13717159   4.768   5.552   1.841  1.2425  1.0660 -0.9678
   25PEO   C13817160   4.684   5.623   1.841  0.1611 -0.1795 -0.6872
   25PEO   C13917161   4.682   5.681   1.695 -0.3622  0.0266 -0.2212
   25PEO   H13A17162   4.635   5.613   1.622 -0.9465 -2.3962  2.2416
   25PEO   H13B17163   4.631   5.777   1.677  0.6295  0.4944 -0.5733
   25PEO   O13C17164   4.825   5.696   1.649  0.5614 -0.6600  0.1126
   25PEO   H13D17165   4.766   5.799   1.470 -0.6123  0.9053  1.2250
   25PEO   H13E17166   4.837   5.636   1.451 -3.0201  0.7896  0.2251
   25PEO   C13F17167   4.839   5.728   1.511 -0.0495  0.8655  0.1865
   25PEO   C14017168   4.981   5.784   1.486  0.4150  0.0985 -0.9650
   25PEO   H14117169   4.986   5.801   1.378 -0.3054  0.3631 -0.9569
   25PEO   H14217170   4.997   5.882   1.534 -1.5445  0.6771 -1.4204
   25PEO   O14317171   5.078   5.671   1.508  0.6522  0.4115  0.5673
   25PEO   H14417172   5.248   5.742   1.602  0.1278 -1.4883  0.1614
   25PEO   H14517173   5.221   5.792   1.435  1.1408 -0.5802 -0.1540
   25PEO   C14617174   5.216   5.707   1.503 -0.1741 -0.4881 -0.1098
   25PEO   C14717175   5.295   5.593   1.436 -0.4418  0.4447  0.3672
   25PEO   H14817176   5.243   5.552   1.348  2.1623 -1.8230 -0.2845
   25PEO   H14917177   5.390   5.631   1.394 -0.6332  0.0393 -0.4598
   25PEO   O14A17178   5.311   5.485   1.530 -0.1625 -0.4749 -0.4206
   25PEO   H14B17179   5.445   5.366   1.405  0.1218 -1.2872  0.4608
   25PEO   H14C17180   5.275   5.320   1.406  0.7662 -2.0185 -0.6771
   25PEO   C14D17181   5.356   5.362   1.468 -0.5545  0.2146 -0.3480
   25PEO   C14E17182   5.389   5.268   1.579 -0.2072  0.5086  0.1251
   25PEO   H14F17183   5.476   5.213   1.541 -1.0936 -0.1941 -0.9531
   25PEO   H15017184   5.428   5.322   1.666  0.2942  1.2631 -0.5448
   25PEO   O15117185   5.265   5.185   1.601 -0.0155  0.0889 -0.1850
   25PEO   H15217186   5.250   5.192   1.806  1.0602  0.2880  0.8844
   25PEO   H15317187   5.338   5.060   1.747 -1.9599 -3.7462 -4.5627
   25PEO   C15417188   5.248   5.120   1.723 -1.1436  0.3245  0.8311
   25PEO   C15517189   5.107   5.060   1.730  0.3759 -1.1292  0.5722
   25PEO   H15617190   5.068   5.023   1.826 -0.9058  1.1007  0.9881
   25PEO   H15717191   5.027   5.134   1.713  1.9213  0.7116  1.0556
   25PEO   O15817192   5.099   4.957   1.638 -0.1762  0.0424 -0.5791
   25PEO   H15917193   4.894   4.957   1.677 -0.9454 -0.0743 -1.5768
   25PEO   H15A17194   4.981   4.818   1.731  0.4018  2.2360  1.5996
   25PEO   C15B17195   4.972   4.887   1.645 -0.5974 -0.2364 -0.3980
   25PEO   C15C17196   4.927   4.822   1.513 -0.3464 -0.2514  0.2640
   25PEO   H15D17197   4.999   4.772   1.446 -0.1428  0.1976  0.1423
   25PEO   H15E17198   4.858   4.738   1.531 -1.2485 -0.0105 -1.8014
   25PEO   O15F17199   4.864   4.930   1.441 -0.0148 -0.0216  0.0796
   25PEO   H16017200   4.812   4.793   1.283  0.8165  0.3650  0.8041
   25PEO   H16117201   4.761   4.958   1.257 -0.2244 -0.5500  0.2253
   25PEO   C16217202   4.774   4.882   1.336 -0.4956 -0.1157  0.6945
   25PEO   C16317203   4.641   4.845   1.412 -0.2696  0.5575 -0.0987
   25PEO   H16417204   4.615   4.918   1.490 -0.8864 -2.8462  3.1696
   25PEO   H16517205   4.564   4.838   1.334  0.9439  0.3655 -1.3311
   25PEO   O16617206   4.647   4.710   1.474  0.9652 -0.2294 -0.1722
   25PEO   H16717207   4.531   4.570   1.585  0.8747 -0.1725 -0.0860
   25PEO   H16817208   4.440   4.714   1.531 -0.4558 -0.5834 -0.0251
   25PEO   C16917209   4.538   4.679   1.567 -0.3702 -0.0128  0.3158
   25PEO   C16A17210   4.560   4.742   1.702  1.1576  0.2214  0.2337
   25PEO   H16B17211   4.484   4.712   1.776  1.5803  0.4931  0.7812
   25PEO   H16C17212   4.657   4.709   1.742  1.0181 -3.8233 -2.1488
   25PEO   O16D17213   4.556   4.881   1.691  0.2931 -0.1774  0.1133
   25PEO   H16E17214   4.470   4.892   1.886 -0.6971 -0.0724 -1.1299
   25PEO   H16F17215   4.477   5.051   1.813 -0.7675 -0.9765  0.5968
   25PEO   C17017216   4.526   4.953   1.814  0.7123 -0.2781 -0.2600
   25PEO   C17117217   4.656   4.990   1.878 -0.1047  0.1082  0.3801
   25PEO   H17217218   4.720   5.036   1.801 -1.5522  0.3904 -0.7134
   25PEO   H17317219   4.632   5.062   1.957 -1.4042  1.5854 -1.2537
   25PEO   O17417220   4.710   4.862   1.931  0.2920  0.0014  0.4903
   25PEO   H17517221   4.816   4.930   2.097 -0.8628  0.6725 -1.5181
   25PEO   H17617222   4.921   4.915   1.953  1.3348 -1.3478  1.1340
   25PEO   C17717223   4.834   4.872   2.005  0.3243 -1.0470 -0.2677
   25PEO   C17817224   4.875   4.728   2.046 -0.5072 -1.0199 -0.2752
   25PEO   H17917225   4.961   4.735   2.114 -1.0192 -3.8923  0.8052
   25PEO   H17A17226   4.787   4.676   2.085 -0.9323  0.3908  0.7401
   25PEO   O17B17227   4.915   4.648   1.932  0.3543 -0.5586  0.4121
   25PEO   H17C17228   4.848   4.473   2.008  1.5503 -0.5917  1.5164
   25PEO   H17D17229   5.012   4.509   2.046  2.5160  1.9397 -0.2957
   25PEO   C17E17230   4.941   4.510   1.962  0.9918  0.0821  0.9085
   25PEO   C17F17231   4.982   4.423   1.839  0.1090 -0.2122 -0.4862
   25PEO   H18017232   4.973   4.317   1.864 -0.6768 -0.4011 -1.4941
   25PEO   H18117233   4.927   4.442   1.746  2.9536 -0.0584 -2.2709
   25PEO   O18217234   5.118   4.453   1.806  0.5814  0.0764 -0.4118
   25PEO   H18317235   5.106   4.667   1.798  0.1084  1.2986 -1.7218
   25PEO   H18417236   5.097   4.586   1.639  1.5746 -0.3020 -2.5613
   25PEO   C18517237   5.143   4.582   1.739 -2.0681 -0.4615 -0.7154
   25PEO   C18617238   5.302   4.590   1.722 -0.0964  0.9664  0.4096
   25PEO   H18717239   5.336   4.694   1.727  0.4271  0.7759  0.9765
   25PEO   H18817240   5.357   4.536   1.800 -1.2696 -0.7848  0.0806
   25PEO   O18917241   5.353   4.533   1.594  0.2590  0.2290  0.4382
   25PEO   H18A17242   5.493   4.451   1.477 -0.5985  0.4228  0.3763
   25PEO   H18B17243   5.505   4.404   1.641  0.6192 -2.2837 -3.6113
   25PEO   C18C17244   5.487   4.492   1.579 -0.4706  0.5608  0.3286
   25PEO   C18D17245   5.581   4.614   1.601  0.4527  0.5124  0.6444
   25PEO   H18E17246   5.649   4.612   1.515 -2.8840 -3.4464 -2.3062
   25PEO   H18F17247   5.520   4.705   1.593  0.0313  0.0539 -3.4146
   25PEO   O19017248   5.653   4.592   1.727  0.7901 -0.3143  0.2292
   25PEO   H19117249   5.601   4.780   1.822  1.1779  0.1215  2.3855
   25PEO   H19217250   5.741   4.771   1.718 -0.1673  1.0162 -0.0306
   25PEO   C19317251   5.683   4.714   1.792 -0.0507 -0.1319 -0.8083
   25PEO   C19417252   5.772   4.706   1.918 -0.3424  0.4654  0.4895
   25PEO   H19517253   5.871   4.664   1.895  0.2198  1.1506  1.5921
   25PEO   H19617254   5.798   4.803   1.962  0.2739 -0.2110  1.6614
   25PEO   O19717255   5.707   4.642   2.030 -0.6491 -0.5095  0.1394
   25PEO   H19817256   5.795   4.746   2.181  1.1722 -0.1310  2.4838
   25PEO   H19917257   5.881   4.598   2.131  1.0454  2.3906 -1.7481
   25PEO   C19A17258   5.781   4.642   2.147  0.5266  0.7235 -0.1125
   25PEO   C19B17259   5.698   4.572   2.253 -0.3548  0.4289 -0.9069
   25PEO   H19C17260   5.753   4.584   2.347 -1.7050 -2.9053  0.4463
   25PEO   H19D17261   5.598   4.618   2.257  0.3595  2.1873 -1.7965
   25PEO   O19E17262   5.691   4.435   2.216 -0.4045  0.0726  0.0662
   25PEO   H19F17263   5.676   4.361   2.406  2.7910 -2.1419 -0.4533
   25PEO   H1A017264   5.680   4.239   2.286 -1.2212 -0.8833  0.3739
   25PEO   C1A117265   5.635   4.337   2.308 -0.2957 -0.4249  0.3059
   25PEO   C1A217266   5.482   4.333   2.301  0.0919  0.1348  0.3331
   25PEO   H1A317267   5.445   4.265   2.379  0.1334 -1.6330 -1.1390
   25PEO   H1A417268   5.450   4.437   2.319  0.6105  0.2992  0.3154
   25PEO   O1A517269   5.441   4.276   2.177  0.1772  0.0830  0.4527
   25PEO   H1A617270   5.601   4.277   2.042 -0.3298 -0.9063  1.5250
   25PEO   H1A717271   5.500   4.423   2.031 -0.8836 -0.1013  1.8881
   25PEO   C1A817272   5.498   4.314   2.045 -0.1781 -0.3463  0.3209
   25PEO   C1A917273   5.413   4.240   1.935  0.1179  0.2930  0.2442
   25PEO   H1AA17274   5.306   4.242   1.961  0.1051  1.7564  0.1611
   25PEO   H1AB17275   5.414   4.300   1.843 -4.0230 -3.2564 -2.5043
   25PEO   O1AC17276   5.465   4.115   1.902  0.0431 -0.0038  0.5968
   25PEO   H1AD17277   5.657   4.169   1.840 -1.8280  1.7162  1.2791
   25PEO   H1AE17278   5.526   4.137   1.708 -1.1791 -1.3378 -0.4688
   25PEO   C1AF17279   5.572   4.109   1.804 -0.5328  0.6594 -0.1401
   25PEO   C1B017280   5.620   3.962   1.789 -0.1798 -0.1728  0.8970
   25PEO   H1B117281   5.715   3.955   1.735 -0.5816  0.4830  0.0875
   25PEO   H1B217282   5.648   3.926   1.889  1.2467  2.1510  1.4068
   25PEO   O1B317283   5.509   3.886   1.731  0.9811 -0.0825  0.5131
   25PEO   H1B417284   5.565   3.723   1.828 -1.5400 -2.3535  0.5257
   25PEO   H1B517285   5.618   3.724   1.654  0.4205 -0.0113  0.1814
   25PEO   C1B617286   5.537   3.748   1.725  0.5630 -0.1832  0.4049
   25PEO   C1B717287   5.421   3.654   1.689  0.1617  0.5675 -0.0035
   25PEO   H1B817288   5.458   3.551   1.688  2.2154  1.2051  2.0978
   25PEO   H1B917289   5.334   3.650   1.756  0.1667 -0.7411 -0.0447
   25PEO   O1BA17290   5.379   3.675   1.551 -0.2844  0.1041 -1.0329
   25PEO   H1BB17291   5.484   3.528   1.457 -0.0853 -0.1822 -0.7207
   25PEO   H1BC17292   5.573   3.672   1.447  0.1388 -1.2316 -2.0119
   25PEO   C1BD17293   5.470   3.635   1.438 -0.5832  0.0001  0.5827
   25PEO   C1BE17294   5.408   3.689   1.303 -0.1832  0.3525  1.1252
   25PEO   H1BF17295   5.463   3.638   1.222 -1.8223  0.9706 -0.4655
   25PEO   H1C017296   5.299   3.682   1.288 -0.0068  3.1947 -3.4643
   25PEO   O1C117297   5.436   3.827   1.296  0.3917  0.6813 -0.1008
   25PEO   H1C217298   5.421   3.998   1.190  1.6026 -1.0795  0.1606
   25PEO   H1C317299   5.288   3.887   1.153  0.9464 -1.3414 -3.9927
   25PEO   C1C417300   5.397   3.892   1.172  0.3332 -0.8268  0.3273
   25PEO   C1C517301   5.483   3.840   1.057 -0.4692 -0.3111  0.9506
   25PEO   H1C617302   5.498   3.731   1.053 -0.4320 -0.2879  0.2946
   25PEO   H1C717303   5.435   3.865   0.961 -2.1414 -2.9711  1.0083
   25PEO   O1C817304   5.619   3.895   1.074 -0.3228 -0.1035 -0.4727
   25PEO   H1C917305   5.654   3.860   0.874  1.6811 -0.3429 -1.1704
   25PEO   H1CA17306   5.759   3.765   0.990  0.3908 -1.0141 -0.4664
   25PEO   C1CB17307   5.713   3.862   0.967  0.1068 -1.0600 -0.1026
   25PEO   C1CC17308   5.828   3.971   0.950  0.7831 -0.1750 -0.2174
   25PEO   H1CD17309   5.846   3.994   0.844  1.3384  0.1603 -0.0534
   25PEO   H1CE17310   5.802   4.066   0.999  0.5141  1.5461 -3.4109
   25PEO   O1CF17311   5.934   3.914   1.017  0.5085 -0.2137 -0.0683
   25PEO   H1D017312   5.981   4.100   1.112 -0.0391  0.6395 -1.6204
   25PEO   H1D117313   6.107   4.038   0.997 -0.6948  1.5239 -0.2942
   25PEO   C1D217314   6.029   4.011   1.069  0.1792 -0.0971  0.0810
   25PEO   C1D317315   6.108   3.943   1.186 -0.2913 -0.0677  0.4019
   25PEO   H1D417316   6.139   4.024   1.253  1.9614 -0.2004 -0.3974
   25PEO   H1D517317   6.042   3.874   1.241 -0.6119  1.1866  1.6247
   25PEO   O1D617318   6.213   3.869   1.132  0.0911  0.0755 -0.1274
   25PEO   H1D717319   6.194   3.665   1.161  1.4368 -0.5411 -1.0361
   25PEO   H1D817320   6.232   3.743   1.309  0.0254  0.3032 -0.2470
   25PEO   C1D917321   6.252   3.750   1.201  0.0352  0.0929 -0.2592
   25PEO   C1DA17322   6.407   3.740   1.196  0.3567  0.2046  0.2334
   25PEO   H1DB17323   6.430   3.847   1.206  0.4010  0.2672 -0.4923
   25PEO   H1DC17324   6.434   3.698   1.294 -0.2015  0.9776  0.7344
   25PEO   O1DD17325   6.463   3.689   1.072 -0.8311 -0.5706  0.0638
   25PEO   H1DE17326   6.366   3.544   0.962  0.0860 -2.9664  0.1072
   25PEO   H1DF17327   6.479   3.479   1.093  0.8653  1.3105  0.8640
   25PEO   C1E017328   6.456   3.560   1.023  0.0687 -0.0539 -0.5108
   25PEO   C1E117329   6.576   3.549   0.926 -0.4709  0.5944 -0.3365
   25PEO   H1E217330   6.558   3.459   0.865  1.6972 -0.4261  0.4078
   25PEO   H1E317331   6.591   3.637   0.863 -0.0619  0.4360 -0.4615
   25PEO   O1E417332   6.698   3.528   1.014  0.6205 -0.3641 -0.3250
   25PEO   H1E517333   6.827   3.427   0.885 -0.7067 -1.4909  1.2440
   25PEO   H1E617334   6.905   3.495   1.029  0.6315  1.5522 -1.3763
   25PEO   C1E717335   6.827   3.513   0.954 -0.2409  0.2600 -0.8032
   25PEO   C1E817336   6.862   3.647   0.884  0.3141  0.2085 -0.1122
   25PEO   H1E917337   6.960   3.635   0.835  1.0101  1.6608  0.8731
   25PEO   H1EA17338   6.780   3.681   0.818  1.3327  1.1572 -0.9091
   25PEO   O1EB17339   6.898   3.750   0.983  0.1140 -0.2939  0.8377
   25PEO   H1EC17340   6.738   3.749   1.108  0.1110  1.2401  2.0433
   25PEO   H1ED17341   6.710   3.830   0.944  0.6580 -0.1713  0.1790
   25PEO   C1EE17342   6.779   3.813   1.028  0.3593 -1.0334  0.2576
   25PEO   C1EF17343   6.802   3.943   1.097  0.4980 -0.8573 -0.0072
   25PEO   H1F017344   6.709   3.965   1.152  1.7789  0.6866  1.6798
   25PEO   H1F117345   6.878   3.921   1.174 -1.1238 -1.1020  1.5857
   25PEO   O1F217346   6.835   4.050   1.001  1.0521  0.5590  0.1211
   25PEO   H1F317347   6.930   4.148   1.152  0.6903 -3.0305 -1.6104
   25PEO   H1F417348   6.772   4.217   1.095 -0.3564 -0.0057  3.1646
   25PEO   C1F517349   6.867   4.172   1.064 -1.1111  0.1576  0.3221
   25PEO   C1F617350   6.947   4.253   0.965 -0.0061  0.0580 -0.1265
   25PEO   H1F717351   7.032   4.311   1.004  0.9200  0.8301 -3.0514
   25PEO   H1F817352   6.997   4.182   0.897  0.7747 -0.1510  0.6462
   25PEO   O1F917353   6.853   4.338   0.895 -0.1729 -0.2920  0.3053
   25PEO   H1FA17354   6.967   4.443   0.745 -1.3458  0.1257 -0.9676
   25PEO   H1FB17355   6.958   4.528   0.915  1.2356 -0.8300 -0.0866
   25PEO   C1FC17356   6.912   4.465   0.838  0.0887 -0.0627 -0.0570
   25PEO   C1FD17357   6.782   4.535   0.783 -0.6850  0.3700  0.0350
   25PEO   H1FE17358   6.711   4.528   0.866 -0.1168 -2.6336  0.3655
   25PEO   H1FF17359   6.785   4.641   0.755 -1.8370  0.2453 -0.6088
   25PEO   O20017360   6.727   4.468   0.662  0.4040  0.1627 -0.7762
   25PEO   H20117361   6.766   4.358   0.496  2.7668 -1.0840  0.9811
   25PEO   H20217362   6.900   4.392   0.577  0.2309  0.0069 -1.5577
   25PEO   C20317363   6.808   4.445   0.548  0.0671  0.7828  0.2815
   25PEO   C20417364   6.836   4.565   0.456  0.5430 -0.2462  0.4990
   25PEO   H20517365   6.913   4.542   0.380 -2.1059 -1.1884 -2.0909
   25PEO   H20617366   6.743   4.593   0.405  0.1021 -0.4492  1.1778
   25PEO   O20717367   6.890   4.677   0.530  0.1919 -0.5732  0.1787
   25PEO   H20817368   7.095   4.648   0.489  0.0317  0.3935 -1.4517
   25PEO   H20917369   7.030   4.584   0.639 -3.0919 -0.0912  0.0064
   25PEO   C20A17370   7.029   4.672   0.573  1.1205 -0.1682 -0.4110
   25PEO   C20B17371   7.060   4.808   0.641 -1.0695  0.3199 -0.4013
   25PEO   H20C17372   7.168   4.819   0.662 -1.4141  1.5740  0.8265
   25PEO   H20D17373   7.028   4.882   0.567 -0.1963  0.8510 -0.2591
   25PEO   O20E17374   6.994   4.816   0.768  0.8060 -0.5280 -0.2280
   25PEO   H20F17375   6.977   4.981   0.913  0.2776  0.5407  0.6580
   25PEO   H21017376   7.091   5.001   0.786  1.9187 -0.1680  2.0196
   25PEO   C21117377   7.046   4.924   0.850 -0.4824 -0.1684  0.4480
   25PEO   C21217378   7.161   4.875   0.941  0.2464 -0.4573 -0.7016
   25PEO   H21317379   7.234   4.810   0.891  2.6048 -0.5707  2.5109
   25PEO   H21417380   7.215   4.967   0.969  0.8977 -0.0143 -3.2001
   25PEO   O21517381   7.096   4.815   1.049 -0.6232  0.0367  0.0788
   25PEO   H21617382   7.288   4.778   1.109 -0.9473 -0.1766 -0.9447
   25PEO   H21717383   7.152   4.693   1.206 -1.3203 -0.7652 -1.4018
   25PEO   C21817384   7.189   4.784   1.158 -0.8334 -0.5654 -0.6653
   25PEO   C21917385   7.191   4.896   1.262 -0.0525  0.0538 -0.7610
   25PEO   H21A17386   7.091   4.921   1.301  0.3340  0.5922 -0.1014
   25PEO   H21B17387   7.247   4.853   1.346 -0.9486  0.9031  0.3088
   25PEO   O21C17388   7.269   4.997   1.203  0.1781  0.2505 -0.2634
   25PEO   H21D17389   7.357   5.040   1.380  1.8240  0.2600 -0.6434
   25PEO   H21E17390   7.230   5.151   1.314  0.6042  0.0234 -1.1205
   25PEO   C21F17391   7.319   5.091   1.291 -0.3831 -1.6048 -0.8916
   25PEO   C22017392   7.417   5.196   1.232 -0.0329 -0.1964 -0.0546
   25PEO   H22117393   7.432   5.280   1.301  1.7503  2.0189 -2.9224
   25PEO   H22217394   7.512   5.148   1.205  0.7216  1.1495  0.1260
   25PEO   O22317395   7.364   5.241   1.110  0.4180 -0.1434  0.0813
   25PEO   H22417396   7.520   5.334   0.987 -1.5826  0.9528 -2.6983
   25PEO   H22517397   7.458   5.423   1.124 -3.4298  1.5803  0.3619
   25PEO   C22617398   7.429   5.351   1.047 -0.0482  0.5424 -0.0943
   25PEO   C22717399   7.341   5.429   0.949 -0.0172  0.1016 -0.6309
   25PEO   H22817400   7.375   5.534   0.946 -1.0223  0.4737  0.2514
   25PEO   H22917401   7.344   5.386   0.848 -0.2120 -0.7446 -0.2840
   25PEO   O22A17402   7.210   5.430   0.992  0.0025  0.3308  0.8194
   25PEO   H22B17403   7.079   5.365   0.843 -1.3693  0.6197 -1.3035
   25PEO   H22C17404   7.121   5.534   0.836 -1.8731 -0.8193 -1.2531
   25PEO   C22D17405   7.099   5.452   0.906 -0.6106 -0.3133 -0.2211
   25PEO   C22E17406   6.978   5.482   1.002 -0.3546  0.4684 -0.5469
   25PEO   H22F17407   7.009   5.522   1.099 -3.7896 -0.1026  0.9255
   25PEO   H23017408   6.910   5.551   0.951 -0.3712  0.7355 -0.1641
   25PEO   O23117409   6.924   5.354   1.009 -0.0987 -0.3976 -0.1906
   25PEO   H23217410   7.037   5.330   1.186  1.6011  1.6768 -1.7285
   25PEO   H23317411   7.061   5.212   1.047 -1.5835 -1.8634  0.2918
   25PEO   C23417412   6.990   5.274   1.104 -0.0425  0.0943  0.1890
   25PEO   C23517413   6.888   5.172   1.152  0.1383  0.1913 -0.8532
   25PEO   H23617414   6.819   5.153   1.067 -2.2788 -0.1657  1.0688
   25PEO   H23717415   6.946   5.089   1.194 -0.3498  0.5951  0.6905
   25PEO   O23817416   6.816   5.231   1.265  0.5100  0.2207  0.3338
   25PEO   H23917417   6.684   5.200   1.419  0.7937  1.1107  0.6227
   25PEO   H23A17418   6.768   5.048   1.362  0.4207 -0.4552 -2.1775
   25PEO   C23B17419   6.718   5.141   1.332 -0.0189  0.3686  0.7950
   25PEO   C23C17420   6.596   5.118   1.244  0.9156  0.1941  0.4340
   25PEO   H23D17421   6.504   5.093   1.299  1.1497 -0.3298  0.5934
   25PEO   H23E17422   6.573   5.207   1.184 -0.8912  0.7995  1.9328
   25PEO   O23F17423   6.611   5.012   1.150 -0.5147 -0.1760 -0.6754
   25PEO   H24017424   6.489   5.043   0.982  3.2282 -1.6063 -2.4007
   25PEO   H24117425   6.398   4.978   1.131  2.6963 -0.4735  4.1467
   25PEO   C24217426   6.490   4.976   1.069 -0.0785  0.5151 -0.5054
   25PEO   C24317427   6.516   4.836   1.019  0.1387  0.2182  0.0538
   25PEO   H24417428   6.451   4.821   0.931  2.0254  1.9061 -1.7301
   25PEO   H24517429   6.613   4.824   0.970 -0.6982 -1.2156 -1.3376
   25PEO   O24617430   6.485   4.744   1.135  0.1837  0.0464  0.0689
   25PEO   H24717431   6.480   4.558   1.029  1.4219 -2.5593  0.8369
   25PEO   H24817432   6.461   4.560   1.202  1.9202 -1.7416  0.8053
   25PEO   C24917433   6.519   4.606   1.120 -0.1404  0.0639  0.2474
   25PEO   C24A17434   6.678   4.575   1.153 -0.1671  0.2766 -0.6761
   25PEO   H24B17435   6.713   4.474   1.125 -0.2586  0.4650 -1.4743
   25PEO   H24C17436   6.738   4.654   1.106 -2.9827  1.5287 -2.4201
   25PEO   O24D17437   6.699   4.585   1.298 -0.2750  0.2518  0.5486
   25PEO   H24E17438   6.898   4.652   1.257 -1.3949  1.8511  0.5644
   25PEO   H24F17439   6.888   4.479   1.277 -0.3232  0.2166 -1.7764
   25PEO   C25017440   6.842   4.574   1.311  0.1526 -0.0228 -0.4224
   25PEO   C25117441   6.879   4.586   1.462  0.2551  0.8797 -0.3417
   25PEO   H25217442   6.861   4.691   1.489 -0.8216  1.0591 -1.6442
   25PEO   H25317443   6.811   4.530   1.528  2.8238 -1.0002  0.8881
   25PEO   O25417444   7.018   4.558   1.483  0.1122  0.2359  0.4123
   25PEO   H25517445   7.065   4.467   1.658 -1.3155  0.8669  3.4323
   25PEO   H25617446   6.972   4.608   1.683 -0.9571 -0.6030 -1.6921
   25PEO   C25717447   7.054   4.569   1.619 -0.0681 -0.3802 -0.7238
   25PEO   C25817448   7.191   4.646   1.633  0.2084  0.6779  1.1714
   25PEO   H25917449   7.224   4.627   1.736  1.3212 -0.0406  0.6989
   25PEO   H25A17450   7.260   4.610   1.555 -0.6158  0.4320  0.5347
   25PEO   O25B17451   7.177   4.787   1.632 -0.3072 -0.2955  0.5519
   25PEO   H25C17452   7.367   4.836   1.568  2.6120 -0.6999  0.8333
   25PEO   H25D17453   7.336   4.826   1.757 -1.3587 -1.2787 -0.2007
   25PEO   C25E17454   7.302   4.851   1.655  0.6126 -0.2338 -0.6522
   25PEO   C25F17455   7.263   5.007   1.644  0.1240 -0.0424  0.0997
   25PEO   H26017456   7.192   5.020   1.561  0.7172 -0.6239 -0.5120
   25PEO   H26117457   7.209   5.038   1.735 -0.4001  1.5593 -0.7139
   25PEO   O26217458   7.380   5.089   1.628 -0.4691  0.0390 -0.2897
   25PEO   H26317459   7.301   5.257   1.730 -0.4005  1.0266  0.3615
   25PEO   H26417460   7.253   5.238   1.554  3.1808  0.4009 -2.5494
   25PEO   C26517461   7.332   5.224   1.629 -0.0420 -0.5873  0.9782
   25PEO   C26617462   7.458   5.312   1.582  0.1013  0.3044 -0.2922
   25PEO   H26717463   7.513   5.278   1.493  2.0751  0.2289  0.8755
   25PEO   H26817464   7.413   5.409   1.557 -0.3056  0.1083 -0.3234
   25PEO   O26917465   7.553   5.318   1.686 -0.0551 -0.2681  0.4775
   25PEO   H26A17466   7.734   5.296   1.574 -0.3719  2.0024 -3.1145
   25PEO   H26B17467   7.751   5.369   1.737 -0.9505  5.0926  0.2283
   25PEO   C26C17468   7.687   5.363   1.648  0.0592 -0.3828 -0.4718
   25PEO   C26D17469   7.676   5.504   1.584 -0.3533  0.1208 -0.0904
   25PEO   H26E17470   7.593   5.562   1.627  0.5460  1.1033  0.3387
   25PEO   H26F17471   7.769   5.559   1.604 -0.5596 -0.1323  1.7207
   25PEO   O27017472   7.659   5.481   1.440  0.3567  0.3323  0.0443
   25PEO   H27117473   7.814   5.375   1.366  0.5919  0.0401  1.4913
   25PEO   H27217474   7.864   5.536   1.393  0.1988 -0.8427  0.3915
   25PEO   C27317475   7.777   5.478   1.358 -0.0309 -0.2665 -0.0088
   25PEO   C27417476   7.731   5.520   1.217  0.8503 -0.9863  0.1716
   25PEO   H27517477   7.822   5.528   1.156  0.2192  2.4866 -0.5223
   25PEO   H27617478   7.665   5.447   1.169  2.5585 -1.8004 -1.0494
   25PEO   O27717479   7.665   5.653   1.206  0.3229 -1.0007 -0.3244
   25PEO   H27817480   7.835   5.765   1.241 -0.6850 -1.1314 -2.0814
   25PEO   H27917481   7.750   5.730   1.383  0.4567  0.1112  0.2202
   25PEO   C27A17482   7.731   5.757   1.278 -0.0055  0.1966  0.3231
   25PEO   C27B17483   7.658   5.896   1.260 -0.9461 -1.0123 -0.0870
   25PEO   H27C17484   7.549   5.893   1.280 -2.0002  0.8348 -4.4105
   25PEO   H27D17485   7.713   5.972   1.318 -0.4950 -0.4277 -1.2522
   25PEO   O27E17486   7.667   5.934   1.120 -0.3425  0.5545 -0.1410
   25PEO   H27F17487   7.640   6.096   0.998 -1.9137  0.7169  0.2651
   25PEO   H28017488   7.634   6.157   1.150  0.4376 -0.8096  1.4050
   25PEO   C28117489   7.602   6.066   1.097 -0.8162  0.1180  0.5231
   25PEO   C28217490   7.448   6.063   1.093 -0.4799  0.6345 -0.1865
   25PEO   H28317491   7.411   6.023   1.189 -0.5890  1.2709  0.0376
   25PEO   H28417492   7.419   6.169   1.093  1.0502  1.0707  0.1304
   25PEO   O28517493   7.401   5.995   0.980 -0.1790 -0.0951  0.7577
   25PEO   H28617494   7.417   5.824   1.094 -1.3492  1.6442  1.3379
   25PEO   H28717495   7.421   5.803   0.914 -0.1398 -0.3940 -0.4219
   25PEO   C28817496   7.374   5.857   0.998  0.2961 -0.3888 -0.1749
   25PEO   C28917497   7.226   5.831   1.002  0.6739  0.3116  0.9415
   25PEO   H28A17498   7.215   5.722   1.009  1.1934  0.2712  1.2184
   25PEO   H28B17499   7.162   5.861   1.086 -0.8027 -0.2794  0.0780
   25PEO   O28C17500   7.154   5.869   0.870  0.0806 -0.3994 -0.7377
   25PEO   H28D17501   7.176   6.084   0.899 -1.9688  1.6280  0.4161
   25PEO   H28E17502   7.024   6.030   0.940 -0.6032  1.1594 -0.3857
   25PEO   C28F17503   7.103   6.009   0.866 -0.4215  0.2151  0.0580
   25PEO   C29017504   7.058   6.036   0.718 -0.6640  0.1363 -0.1187
   25PEO   H29117505   7.071   6.145   0.702 -0.9436  0.0114 -1.2685
   25PEO   H29217506   7.131   5.990   0.651 -0.8899  1.6782 -1.4938
   25PEO   O29317507   6.930   5.989   0.707  0.1337 -0.8040  0.1121
   25PEO   H29417508   6.913   5.995   0.498  0.1289  2.3372 -0.4397
   25PEO   H29517509   6.886   6.149   0.575 -3.3754  0.5731  0.5650
   25PEO   C29617510   6.868   6.041   0.588 -0.6472  0.0323  0.4390
   25PEO   C29717511   6.714   6.016   0.591 -0.7608  0.4775 -0.2225
   25PEO   H29817512   6.688   6.050   0.693  2.4627  1.8094  0.2765
   25PEO   H29917513   6.667   6.077   0.513 -3.2094  0.1620  0.9274
   25PEO   O29A17514   6.699   5.871   0.578 -0.0335  0.5370 -0.3546
   25PEO   H29B17515   6.505   5.893   0.542  0.5528 -1.1597  0.0686
   25PEO   H29C17516   6.546   5.836   0.701 -0.6463  1.4410 -0.0522
   25PEO   C29D17517   6.573   5.825   0.595  0.7506 -0.6623  0.4506
   25PEO   C29E17518   6.557   5.687   0.542  0.0844  0.6576 -0.6911
   25PEO   H29F17519   6.638   5.625   0.581  0.6054  1.5671 -0.3068
   25PEO   H2A017520   6.464   5.638   0.576  0.6670 -0.3522 -0.5201
   25PEO   O2A117521   6.567   5.686   0.402  0.0184  0.0075 -0.6135
   25PEO   H2A217522   6.493   5.480   0.360  1.1488 -1.4969  1.3357
   25PEO   H2A317523   6.664   5.499   0.384 -1.2648  0.6298  1.2831
   25PEO   C2A417524   6.576   5.550   0.342 -0.6870  0.3950 -0.2930
   25PEO   C2A517525   6.605   5.551   0.187  0.4433 -1.2181 -0.2034
   25PEO   H2A617526   6.680   5.629   0.167  0.6982 -0.6221  2.6636
   25PEO   H2A717527   6.644   5.451   0.163  0.7261 -1.0603 -0.4225
   25PEO   O2A817528   6.481   5.574   0.123 -0.3226  0.8756  0.1252
   25PEO   H2A917529   6.548   5.764   0.062  0.8283  0.0829 -1.1924
   25PEO   H2AA17530   6.393   5.761   0.156 -0.4073  0.9926 -0.9502
   25PEO   C2AB17531   6.455   5.709   0.081  0.7912  0.6266  0.2602
   25PEO   C2AC17532   6.368   5.690  -0.049 -0.3955 -0.2755  0.0412
   25PEO   H2AD17533   6.401   5.766  -0.121  0.0580 -0.2090  0.3088
   25PEO   H2AE17534   6.388   5.588  -0.084  2.3729  0.0593  0.3755
   25PEO   O2AF17535   6.225   5.695  -0.035  0.5859 -0.2515  0.0389
   25PEO   H2B017536   6.194   5.523  -0.146 -0.1002 -1.2112  1.4830
   25PEO   H2B117537   6.178   5.671  -0.243  0.4528  1.1882  0.7678
   25PEO   C2B217538   6.157   5.627  -0.144  0.9830 -0.7702  0.0500
   25PEO   C2B317539   6.003   5.616  -0.143  0.1451  0.7180  0.2569
   25PEO   H2B417540   5.977   5.715  -0.182  1.4501  0.0923 -2.4403
   25PEO   H2B517541   5.961   5.536  -0.206 -0.1490  1.2123 -0.1814
   25PEO   O2B617542   5.944   5.602  -0.015 -0.4500 -0.2847  0.5358
   25PEO   H2B717543   5.785   5.536   0.088  1.2274 -1.1079 -0.5191
   25PEO   H2B817544   5.783   5.499  -0.087 -2.8010 -2.2858  2.7636
   25PEO   C2B917545   5.808   5.575  -0.012  0.5079 -0.0408 -0.2835
   25PEO   C2BA17546   5.732   5.706  -0.032 -0.0148  0.1785  0.4385
   25PEO   H2BB17547   5.630   5.686   0.005 -0.3432 -0.7710 -0.8976
   25PEO   H2BC17548   5.772   5.782   0.037  2.2196  0.6661 -1.3064
   25PEO   O2BD17549   5.735   5.748  -0.178  0.5324  0.5294  0.1488
   25PEO   H2BE17550   5.830   5.745  -0.194  0.6360  0.8465  0.6989
   26PEO   H00117551   4.530   2.774   0.003 -1.1167 -0.7626  0.7683
   26PEO   H00217552   4.536   2.693  -0.153 -2.3326  0.0931 -3.0582
   26PEO   H00317553   4.477   2.872  -0.131 -3.1632 -0.3594 -1.0577
   26PEO   C00417554   4.480   2.768  -0.095  0.3141 -0.0420 -0.0479
   26PEO   C00517555   4.343   2.717  -0.065  0.5933  0.6217 -0.7274
   26PEO   H00617556   4.279   2.797  -0.023 -1.0411  0.9678 -3.6010
   26PEO   H00717557   4.295   2.692  -0.161 -4.3125 -4.0772  2.3800
   26PEO   O00817558   4.353   2.601   0.020  0.2007  0.7420 -0.5005
   26PEO   H00917559   4.214   2.650   0.167  1.2877 -0.6565  2.7544
   26PEO   H00A17560   4.279   2.496   0.176  4.0936  3.1988 -0.0828
   26PEO   C00B17561   4.239   2.566   0.101  0.7381  1.3622 -0.2307
   26PEO   C00C17562   4.115   2.512   0.011 -0.2227 -0.3654 -1.1162
   26PEO   H00D17563   4.143   2.437  -0.065 -0.6113 -3.0137  1.2049
   26PEO   H00E17564   4.047   2.457   0.077  0.5799  0.7127  0.6608
   26PEO   O00F17565   4.053   2.633  -0.045 -0.5798  0.2362  0.0712
   26PEO   H01017566   3.932   2.648   0.126 -0.0251 -3.0937 -0.3461
   26PEO   H01117567   3.853   2.618  -0.028  0.7519 -1.5600 -0.0238
   26PEO   C01217568   3.934   2.675   0.020 -0.8301  0.4470  0.4108
   26PEO   C01317569   3.901   2.822  -0.013 -0.3065  0.4253 -0.3855
   26PEO   H01417570   3.898   2.831  -0.122  0.0942  1.9610 -0.2827
   26PEO   H01517571   3.794   2.832   0.011 -0.5067 -2.2898  0.2596
   26PEO   O01617572   3.989   2.930   0.029 -0.6290  0.8263 -0.0484
   26PEO   H01717573   3.937   2.890   0.233 -0.7715 -0.6380 -0.5502
   26PEO   H01817574   3.880   3.042   0.155  0.8082  0.5184  0.7325
   26PEO   C01917575   3.963   2.970   0.163  0.2018 -0.2502  0.2211
   26PEO   C01A17576   4.087   3.046   0.205 -0.7693 -0.1220 -0.4731
   26PEO   H01B17577   4.096   3.140   0.148  2.4584  0.4378  0.8012
   26PEO   H01C17578   4.069   3.078   0.309  1.8204 -1.6999  0.5382
   26PEO   O01D17579   4.215   2.974   0.193  0.2302  0.1347  0.8231
   26PEO   H01E17580   4.300   3.092   0.340  2.8052  1.5285  0.2071
   26PEO   H01F17581   4.388   3.104   0.186  0.9979 -3.2198 -2.3017
   26PEO   C02017582   4.333   3.036   0.252  0.2800 -0.3396  0.3442
   26PEO   C02117583   4.439   2.928   0.284 -0.0078 -0.1842  0.1455
   26PEO   H02217584   4.434   2.848   0.208 -0.6278  1.1772 -1.3062
   26PEO   H02317585   4.546   2.951   0.289  0.5123 -1.7556 -1.9917
   26PEO   O02417586   4.408   2.871   0.417 -0.2691 -0.2887  0.2539
   26PEO   H02517587   4.593   2.801   0.424  0.3894 -0.9241  2.1316
   26PEO   H02617588   4.472   2.685   0.370 -0.9902  0.9198 -1.0612
   26PEO   C02717589   4.493   2.762   0.445 -0.4255 -0.2002 -0.0449
   26PEO   C02817590   4.481   2.716   0.584 -0.5477  0.3695  0.7215
   26PEO   H02917591   4.379   2.692   0.616  0.6747 -2.5182  3.0078
   26PEO   H02A17592   4.545   2.628   0.602 -0.3796  0.1725 -0.7471
   26PEO   O02B17593   4.536   2.829   0.666  0.4739 -0.0719 -0.1585
   26PEO   H02C17594   4.631   2.702   0.789 -2.2046 -1.6355 -0.8035
   26PEO   H02D17595   4.490   2.779   0.865  0.1171 -0.2461 -0.0515
   26PEO   C02E17596   4.576   2.797   0.799 -0.3571 -0.5215 -0.7496
   26PEO   C02F17597   4.667   2.906   0.848  0.6493  0.9199  0.3530
   26PEO   H03017598   4.722   2.853   0.928  1.1530  1.8537  0.6356
   26PEO   H03117599   4.734   2.934   0.766  1.2209 -0.3949  0.3461
   26PEO   O03217600   4.581   3.013   0.901  0.0587  0.6498 -0.0031
   26PEO   H03317601   4.710   3.183   0.871  0.9897 -0.8572 -0.2088
   26PEO   H03417602   4.718   3.107   1.032  0.4941  0.2611 -0.3093
   26PEO   C03517603   4.652   3.130   0.948  0.1396  0.3187 -0.0174
   26PEO   C03617604   4.541   3.216   1.006 -0.6407  0.2420  0.3327
   26PEO   H03717605   4.598   3.304   1.036 -2.7434  1.7504  0.1203
   26PEO   H03817606   4.476   3.248   0.923  0.6466  0.7302 -0.5312
   26PEO   O03917607   4.472   3.147   1.113 -0.0467 -0.5001  0.4856
   26PEO   H03A17608   4.314   3.279   1.081 -1.8132 -1.1498  0.5996
   26PEO   H03B17609   4.424   3.324   1.219 -0.0695 -1.4187  2.4760
   26PEO   C03C17610   4.373   3.241   1.166  0.5166 -0.0081 -0.4477
   26PEO   C03D17611   4.268   3.163   1.251 -0.2694 -0.4435  0.1857
   26PEO   H03E17612   4.164   3.199   1.241  0.0863  0.7902  0.8238
   26PEO   H03F17613   4.270   3.058   1.216 -2.6351  0.0454 -1.7245
   26PEO   O04017614   4.313   3.174   1.391  0.8454 -0.3772  0.7679
   26PEO   H04117615   4.255   2.984   1.451 -2.9549  0.4423  0.3357
   26PEO   H04217616   4.134   3.091   1.492 -0.5974  2.0835  0.3092
   26PEO   C04317617   4.244   3.085   1.492 -0.6575  0.4426  1.1014
   26PEO   C04417618   4.303   3.097   1.640 -0.4028 -0.1331  0.6609
   26PEO   H04517619   4.274   3.192   1.688 -2.1587 -1.1553  1.7392
   26PEO   H04617620   4.255   3.020   1.701 -0.8154 -0.6832 -0.3311
   26PEO   O04717621   4.444   3.071   1.642 -0.0329  0.7372  1.2556
   26PEO   H04817622   4.476   2.900   1.520 -1.0521  0.9160  0.0085
   26PEO   H04917623   4.419   2.873   1.686 -1.2667  0.6384 -0.8204
   26PEO   C04A17624   4.484   2.936   1.624  0.2091  0.1686  0.1908
   26PEO   C04B17625   4.629   2.919   1.669  0.3104 -0.7242 -0.4890
   26PEO   H04C17626   4.660   2.819   1.635  2.4259  0.8216 -3.5792
   26PEO   H04D17627   4.697   2.984   1.613  0.3547 -2.1168 -2.1259
   26PEO   O04E17628   4.638   2.943   1.808 -0.7508 -0.8222 -0.2765
   26PEO   H04F17629   4.558   3.122   1.862  0.0744 -1.0315 -1.3450
   26PEO   H05017630   4.723   3.135   1.799  1.1892  1.7568  3.3235
   26PEO   C05117631   4.656   3.073   1.861  0.1219 -0.9959 -0.2821
   26PEO   C05217632   4.708   3.067   2.007 -0.7757 -0.4351 -0.1590
   26PEO   H05317633   4.796   3.005   2.029  0.1728  0.3193 -1.7072
   26PEO   H05417634   4.731   3.172   2.032  2.7610 -0.7121 -1.6773
   26PEO   O05517635   4.592   3.026   2.084  0.4282 -0.4842 -0.6578
   26PEO   H05617636   4.716   3.006   2.260 -1.1778  1.9492  3.8478
   26PEO   H05717637   4.548   2.952   2.276  0.8867  0.9328  2.4706
   26PEO   C05817638   4.613   3.028   2.230 -0.4376  0.3781 -0.5365
   26PEO   C05917639   4.583   3.165   2.294 -0.5160  0.0350 -0.0443
   26PEO   H05A17640   4.500   3.211   2.240 -0.3952  1.1376  0.6671
   26PEO   H05B17641   4.559   3.154   2.401  2.3911 -1.5559  0.5531
   26PEO   O05C17642   4.699   3.243   2.286  0.7257  0.0331 -0.3208
   26PEO   H05D17643   4.685   3.367   2.454 -0.7129 -1.0506  0.6742
   26PEO   H05E17644   4.637   3.439   2.294 -0.5218  0.5671  3.1282
   26PEO   C05F17645   4.705   3.370   2.346 -0.1995 -1.0024  0.7688
   26PEO   C06017646   4.848   3.421   2.321  0.8247 -0.0327 -0.5651
   26PEO   H06117647   4.881   3.483   2.405  2.0506  0.3972 -1.3248
   26PEO   H06217648   4.927   3.344   2.313  1.5767  0.4545  1.5057
   26PEO   O06317649   4.856   3.501   2.205  0.4599  0.0886  0.2222
   26PEO   H06417650   5.056   3.489   2.194  0.8586  0.8869 -0.3739
   26PEO   H06517651   4.997   3.641   2.276 -0.0827  0.2589  0.0355
   26PEO   C06617652   4.980   3.569   2.194 -0.4495 -0.3009  0.5888
   26PEO   C06717653   4.970   3.645   2.065  0.0083  0.1988  0.2608
   26PEO   H06817654   4.875   3.699   2.079 -1.1042 -1.5438 -0.3284
   26PEO   H06917655   5.057   3.713   2.056  2.4190 -2.8464 -1.4094
   26PEO   O06A17656   4.962   3.550   1.958 -0.5040 -0.4566  0.5127
   26PEO   H06B17657   5.110   3.636   1.843  1.6230 -3.9525  0.7182
   26PEO   H06C17658   4.940   3.671   1.796  1.2186  1.2370 -1.5288
   26PEO   C06D17659   5.010   3.593   1.830 -0.3403  0.3918 -0.1578
   26PEO   C06E17660   5.006   3.465   1.739 -0.8800  0.7300 -1.5775
   26PEO   H06F17661   4.918   3.401   1.753  0.5378 -1.4572 -2.0508
   26PEO   H07017662   5.025   3.491   1.634 -1.0217 -0.8710 -2.0291
   26PEO   O07117663   5.123   3.380   1.775 -0.2800  0.2409 -0.6161
   26PEO   H07217664   5.230   3.220   1.717  0.4170  0.8651  1.4966
   26PEO   H07317665   5.104   3.276   1.592  0.2226  1.6139  0.5813
   26PEO   C07417666   5.128   3.258   1.697  0.1184 -0.4807  0.2896
   26PEO   C07517667   5.030   3.152   1.756  0.5192 -0.3657 -0.6911
   26PEO   H07617668   4.927   3.183   1.733  0.9654  3.4711  1.6289
   26PEO   H07717669   5.046   3.068   1.686  0.4765 -0.3661 -0.7011
   26PEO   O07817670   5.070   3.134   1.888 -0.5018  0.8673 -0.4921
   26PEO   H07917671   4.917   3.244   1.976  0.0657 -0.7250  1.2102
   26PEO   H07A17672   5.076   3.312   1.994 -2.1166  0.8546 -1.7428
   26PEO   C07B17673   5.023   3.217   1.986  0.2836 -0.6770 -0.7104
   26PEO   C07C17674   5.032   3.137   2.117 -0.0350  0.7268  0.0143
   26PEO   H07D17675   4.948   3.159   2.185 -1.5897 -1.2812 -1.1513
   26PEO   H07E17676   5.018   3.029   2.099 -0.3410  0.8858 -0.7279
   26PEO   O07F17677   5.157   3.168   2.174  0.1665  0.5506 -0.0773
   26PEO   H08017678   5.071   3.196   2.365  0.9353 -1.2621  2.0637
   26PEO   H08117679   5.249   3.204   2.368  0.4224 -1.4737  1.3818
   26PEO   C08217680   5.163   3.153   2.322  0.4580 -0.0477 -0.3503
   26PEO   C08317681   5.174   3.010   2.366 -0.1543  0.3012 -0.1966
   26PEO   H08417682   5.244   2.954   2.302 -0.7958 -0.1943 -0.4617
   26PEO   H08517683   5.217   3.007   2.467  0.9245  1.8763 -0.5530
   26PEO   O08617684   5.049   2.945   2.374 -0.9468 -0.0078  0.6161
   26PEO   H08717685   5.091   2.775   2.477  0.1864  1.6881 -0.0299
   26PEO   H08817686   5.109   2.751   2.295 -0.9851 -3.0293  0.5926
   26PEO   C08917687   5.050   2.795   2.377 -0.0302  0.1568 -0.2772
   26PEO   C08A17688   4.907   2.742   2.364  0.2269  0.5871 -0.9934
   26PEO   H08B17689   4.849   2.796   2.288 -0.9945  0.8631  0.1026
   26PEO   H08C17690   4.913   2.634   2.345 -4.0969 -0.7209  2.9936
   26PEO   O08D17691   4.867   2.750   2.498 -0.8872 -0.3105  0.0879
   26PEO   H08E17692   4.683   2.644   2.494  2.6146 -1.7234  2.6853
   26PEO   H08F17693   4.671   2.823   2.469 -1.9124 -0.2563  3.0492
   26PEO   C09017694   4.724   2.742   2.521  0.6683 -0.2363  0.7086
   26PEO   C09117695   4.691   2.783   2.670 -0.2604 -0.2140  0.2221
   26PEO   H09217696   4.762   2.857   2.709 -0.5879  1.3204 -1.9737
   26PEO   H09317697   4.593   2.834   2.676  1.4404  3.4793 -0.6821
   26PEO   O09417698   4.707   2.666   2.747  0.3429  0.3592  0.3980
   26PEO   H09517699   4.545   2.725   2.858 -0.3543  1.1921  1.5708
   26PEO   H09617700   4.698   2.759   2.935  0.1361 -0.6357 -0.2917
   26PEO   C09717701   4.645   2.683   2.877 -0.6967 -0.3866  0.1358
   26PEO   C09817702   4.645   2.545   2.948 -0.8636 -0.0121  0.0546
   26PEO   H09917703   4.745   2.505   2.972 -0.8912 -0.7445 -0.9751
   26PEO   H09A17704   4.597   2.542   3.047 -1.4613  0.1104 -0.2284
   26PEO   O09B17705   4.583   2.450   2.868  0.7332 -0.1679 -0.1160
   26PEO   H09C17706   4.515   2.347   3.045  1.1381  2.1935  0.1268
   26PEO   H09D17707   4.663   2.288   2.968 -0.2429  1.2216 -1.1324
   26PEO   C09E17708   4.565   2.333   2.948 -0.8076  0.2275 -0.6556
   26PEO   C09F17709   4.471   2.228   2.880 -0.1215 -0.0506 -0.5286
   26PEO   H0A017710   4.500   2.208   2.776 -1.7212 -2.3134 -0.6078
   26PEO   H0A117711   4.498   2.138   2.938  3.1121  1.6573  0.9260
   26PEO   O0A217712   4.337   2.259   2.892  0.4013  0.1336  0.0736
   26PEO   H0A317713   4.352   2.220   3.099  0.9837 -1.5710 -0.7481
   26PEO   H0A417714   4.223   2.135   3.018 -3.2748  2.5090 -1.0199
   26PEO   C0A517715   4.278   2.230   3.018  0.4288  0.5276 -0.0346
   26PEO   C0A617716   4.174   2.345   3.046 -0.7605 -0.0481 -0.1862
   26PEO   H0A717717   4.113   2.363   2.957 -1.4340  0.0514  0.2823
   26PEO   H0A817718   4.098   2.309   3.116 -0.4770 -0.5540 -0.1323
   26PEO   O0A917719   4.251   2.453   3.100  0.9989  0.0649  0.1048
   26PEO   H0AA17720   4.095   2.539   3.221  0.6226  1.5240  0.4610
   26PEO   H0AB17721   4.111   2.586   3.043  1.0483 -0.0422 -0.5841
   26PEO   C0AC17722   4.163   2.559   3.136  0.3431 -0.1435 -0.2135
   26PEO   C0AD17723   4.256   2.677   3.174 -0.1202  0.2996  0.0741
   26PEO   H0AE17724   4.341   2.694   3.107  0.9168 -0.1977  1.2100
   26PEO   H0AF17725   4.195   2.766   3.154  0.1218  0.4663  0.0670
   26PEO   O0B017726   4.288   2.657   3.313 -0.1668 -0.8390  0.2589
   26PEO   H0B117727   4.187   2.837   3.362 -0.2752  0.5617  0.1809
   26PEO   H0B217728   4.369   2.837   3.396 -0.5954  0.4002  1.1883
   26PEO   C0B317729   4.277   2.779   3.388 -0.4362  0.2767  0.1113
   26PEO   C0B417730   4.242   2.746   3.538 -0.7009 -0.3127 -0.2848
   26PEO   H0B517731   4.237   2.842   3.592 -0.2867  0.3812 -1.4508
   26PEO   H0B617732   4.141   2.705   3.554 -1.9670  2.0956 -1.5265
   26PEO   O0B717733   4.345   2.673   3.611  0.3157 -0.5627  0.2135
   26PEO   H0B817734   4.456   2.492   3.624  0.5942 -0.4676 -0.8182
   26PEO   H0B917735   4.358   2.499   3.478  0.8923 -0.4984  0.3397
   26PEO   C0BA17736   4.358   2.523   3.585  0.4617  0.3595  0.1530
   26PEO   C0BB17737   4.242   2.438   3.639  0.4193 -0.1825  0.1673
   26PEO   H0BC17738   4.270   2.332   3.631  2.3659  0.2022  1.4528
   26PEO   H0BD17739   4.224   2.462   3.745  1.8521  1.0455  0.1569
   26PEO   O0BE17740   4.126   2.461   3.555  1.0114 -0.5034 -0.2400
   26PEO   H0BF17741   4.168   2.262   3.462  0.2153  1.0776  0.9037
   26PEO   H0C017742   4.180   2.391   3.359  2.1437  0.9712  2.0733
   26PEO   C0C117743   4.118   2.359   3.443 -0.5004  0.5729  0.1150
   26PEO   C0C217744   3.973   2.332   3.393  0.1186 -1.1642 -1.0447
   26PEO   H0C317745   3.941   2.425   3.343 -1.4939 -0.6998  0.7157
   26PEO   H0C417746   3.965   2.259   3.311 -2.4354 -1.6571 -0.4432
   26PEO   O0C517747   3.896   2.293   3.506 -0.9044  0.2606  0.6855
   26PEO   H0C617748   4.000   2.139   3.617 -0.2796 -0.0765 -0.9075
   26PEO   H0C717749   3.875   2.078   3.500  0.0876  1.0742  0.3028
   26PEO   C0C817750   3.904   2.160   3.567 -0.5584  1.4099  0.1834
   26PEO   C0C917751   3.803   2.166   3.689 -0.1536  1.4438  0.8471
   26PEO   H0CA17752   3.795   2.071   3.744 -1.0327  1.2951  0.4855
   26PEO   H0CB17753   3.840   2.245   3.756  2.1406  0.6343  0.6546
   26PEO   O0CC17754   3.664   2.185   3.630  0.0327 -0.1116  0.0689
   26PEO   H0CD17755   3.471   2.256   3.653 -1.3746 -1.9422  0.0835
   26PEO   H0CE17756   3.585   2.317   3.779  1.6999  1.6203 -1.8889
   26PEO   C0CF17757   3.554   2.229   3.720 -1.0913  0.5654  0.8347
   26PEO   C0D017758   3.503   2.103   3.798 -0.1297 -0.6215 -0.0040
   26PEO   H0D117759   3.398   2.135   3.813  0.0050 -0.3054  0.2919
   26PEO   H0D217760   3.502   2.020   3.726  1.0173 -0.3728 -0.3255
   26PEO   O0D317761   3.572   2.084   3.919 -0.2270  0.5546  0.1032
   26PEO   H0D417762   3.475   2.224   4.040 -0.2157  0.1080  0.3867
   26PEO   H0D517763   3.639   2.275   3.987 -1.8009  1.3479 -1.6189
   26PEO   C0D617764   3.577   2.189   4.019 -0.2493  0.5637 -0.6229
   26PEO   C0D717765   3.633   2.127   4.152  0.0513  0.1271 -0.2805
   26PEO   H0D817766   3.584   2.184   4.232  1.2781  2.2674 -0.9960
   26PEO   H0D917767   3.615   2.018   4.145 -1.8501  0.1521  2.3894
   26PEO   O0DA17768   3.776   2.141   4.155 -0.2829 -0.3211 -0.0490
   26PEO   H0DB17769   3.836   2.107   3.952  0.0384 -0.4793 -0.0412
   26PEO   H0DC17770   3.823   1.964   4.045  0.9465 -0.8110  2.5444
   26PEO   C0DD17771   3.851   2.070   4.054  0.2050 -0.3387 -0.0149
   26PEO   C0DE17772   3.994   2.083   4.098 -0.6009 -0.0359  0.8878
   26PEO   H0DF17773   4.004   2.060   4.205  0.7640  2.4493  1.3766
   26PEO   H0E017774   4.056   2.007   4.049  0.8590  1.5553  0.1563
   26PEO   O0E117775   4.044   2.214   4.068 -0.2309  0.1740  0.4407
   26PEO   H0E217776   4.224   2.183   4.189  0.2459  1.6010  2.4745
   26PEO   H0E317777   4.117   2.306   4.232 -0.5697 -0.7773 -1.0386
   26PEO   C0E417778   4.161   2.260   4.142  0.3901 -0.1243 -0.9209
   26PEO   C0E517779   4.244   2.356   4.057 -0.0128  0.3355  0.5680
   26PEO   H0E617780   4.181   2.391   3.974  1.0787  1.7531  0.3075
   26PEO   H0E717781   4.269   2.441   4.122 -0.5968 -0.2816  1.6402
   26PEO   O0E817782   4.358   2.288   4.009 -0.9559  0.0454  0.0340
   26PEO   H0E917783   4.479   2.446   4.052 -0.7103 -0.6607  0.5921
   26PEO   H0EA17784   4.404   2.460   3.893  1.0953 -0.2642 -0.7699
   26PEO   C0EB17785   4.451   2.389   3.962 -0.9756 -0.4579  0.5401
   26PEO   C0EC17786   4.572   2.311   3.904  0.2559  0.4202 -0.7284
   26PEO   H0ED17787   4.660   2.376   3.890 -0.1512  0.8306 -1.4398
   26PEO   H0EE17788   4.587   2.223   3.969  2.1071 -0.3643 -2.1229
   26PEO   O0EF17789   4.522   2.269   3.779  0.1626 -0.3111 -0.7247
   26PEO   H0F017790   4.618   2.082   3.753  0.0813 -0.8005 -1.6207
   26PEO   H0F117791   4.715   2.214   3.720  0.6141 -0.5846 -1.6435
   26PEO   C0F217792   4.610   2.183   3.708  0.1678  0.0778  0.2502
   26PEO   C0F317793   4.568   2.184   3.558 -0.6990  0.3967 -0.4792
   26PEO   H0F417794   4.612   2.098   3.506 -0.7546  0.8010 -1.2051
   26PEO   H0F517795   4.459   2.174   3.558 -0.8054  0.5154  2.5720
   26PEO   O0F617796   4.608   2.309   3.500 -0.0618  0.3783  0.0503
   26PEO   H0F717797   4.518   2.377   3.327  1.1175  0.0804 -0.7563
   26PEO   H0F817798   4.569   2.210   3.312 -1.3019  0.4198 -0.8606
   26PEO   C0F917799   4.597   2.307   3.355  0.1778 -0.5329  0.4376
   26PEO   C0FA17800   4.726   2.368   3.288 -0.8915  0.4574 -0.2475
   26PEO   H0FB17801   4.812   2.359   3.356 -1.8040  2.4006  1.2141
   26PEO   H0FC17802   4.743   2.323   3.188  3.3896 -1.2557  1.0122
   26PEO   O0FD17803   4.710   2.504   3.259  0.5684  0.0224 -0.2831
   26PEO   H0FE17804   4.784   2.617   3.427  1.3391  1.2557 -1.3855
   26PEO   H0FF17805   4.599   2.563   3.425 -0.2639 -0.2727 -1.3207
   26PEO   C10017806   4.691   2.596   3.373  0.6457 -0.1579  0.2822
   26PEO   C10117807   4.627   2.721   3.308  0.2468  0.7372 -0.1502
   26PEO   H10217808   4.537   2.694   3.251 -2.0085  1.3425  2.8443
   26PEO   H10317809   4.589   2.778   3.394 -1.5193 -0.8420  0.1912
   26PEO   O10417810   4.714   2.795   3.234 -0.7241 -0.0250 -0.4305
   26PEO   H10517811   4.882   2.805   3.370 -2.3364 -2.7205  0.0290
   26PEO   H10617812   4.746   2.914   3.407 -1.6652 -1.6697  0.3120
   26PEO   C10717813   4.807   2.873   3.325  0.5233  1.0210  0.4346
   26PEO   C10817814   4.865   2.983   3.241 -0.3389  0.1851  0.3829
   26PEO   H10917815   4.946   3.039   3.291  0.2745 -0.9312  0.6848
   26PEO   H10A17816   4.902   2.937   3.149  1.2041  0.8055  0.6639
   26PEO   O10B17817   4.765   3.077   3.209  0.3226  0.1577  0.1533
   26PEO   H10C17818   4.806   3.165   3.010 -2.5077 -0.1304 -0.6086
   26PEO   H10D17819   4.894   3.234   3.151 -1.3558  2.0975 -0.2635
   26PEO   C10E17820   4.802   3.182   3.119  0.0293 -0.4277 -0.4075
   26PEO   C10F17821   4.687   3.281   3.153  0.4318 -0.0046  0.1244
   26PEO   H11017822   4.676   3.349   3.067 -2.1052  0.4484  0.7241
   26PEO   H11117823   4.591   3.236   3.181 -0.3326  1.0428 -0.7277
   26PEO   O11217824   4.736   3.368   3.262 -0.1177 -0.0526  0.5748
   26PEO   H11317825   4.857   3.242   3.386  1.6472  2.1361  2.7685
   26PEO   H11417826   4.685   3.222   3.411  0.0070  0.9748  0.8929
   26PEO   C11517827   4.762   3.297   3.390  0.3879  0.3619  0.0594
   26PEO   C11617828   4.762   3.400   3.508 -0.4465  0.6250  0.5431
   26PEO   H11717829   4.811   3.346   3.591 -0.9642  0.5092  0.7762
   26PEO   H11817830   4.811   3.489   3.467  2.8550 -1.6543 -0.9769
   26PEO   O11917831   4.624   3.430   3.532 -0.1736  0.4784 -1.0537
   26PEO   H11A17832   4.585   3.597   3.646 -1.0612 -0.0006 -1.0176
   26PEO   H11B17833   4.694   3.492   3.728  0.5488  3.6006 -1.3531
   26PEO   C11C17834   4.604   3.490   3.665 -0.2328  0.2510 -0.3381
   26PEO   C11D17835   4.479   3.420   3.732 -0.0414  0.3209 -0.2139
   26PEO   H11E17836   4.434   3.491   3.803 -2.1179  1.5457 -2.6092
   26PEO   H11F17837   4.409   3.390   3.653  1.2617  2.1858 -2.1625
   26PEO   O12017838   4.532   3.304   3.796  0.1041  0.0695 -0.6435
   26PEO   H12117839   4.381   3.284   3.942  0.8024  2.7771 -0.5174
   26PEO   H12217840   4.508   3.150   3.940 -1.3478 -0.5414 -0.1311
   26PEO   C12317841   4.447   3.221   3.881 -0.2104  0.8253  0.2956
   26PEO   C12417842   4.372   3.134   3.776 -0.0312  0.2357 -0.0574
   26PEO   H12517843   4.441   3.104   3.696  0.6505 -0.4580  0.7656
   26PEO   H12617844   4.343   3.038   3.820  2.3241 -0.8615 -0.7116
   26PEO   O12717845   4.262   3.204   3.712 -0.0872 -0.1887 -0.3205
   26PEO   H12817846   4.163   3.071   3.570 -0.5559 -0.5338  3.3429
   26PEO   H12917847   4.307   3.158   3.511  1.4711  0.4736  1.1174
   26PEO   C12A17848   4.219   3.165   3.576  0.1594 -0.5448 -0.4650
   26PEO   C12B17849   4.124   3.282   3.523 -0.4860 -0.5720 -1.2949
   26PEO   H12C17850   4.185   3.372   3.504 -1.7589 -0.0360 -3.1728
   26PEO   H12D17851   4.077   3.260   3.426 -0.8877  3.0352 -2.0692
   26PEO   O12E17852   4.014   3.316   3.621 -0.2489 -0.0911 -0.8164
   26PEO   H12F17853   3.844   3.250   3.717  0.4220  0.2925  0.1460
   26PEO   H13017854   3.979   3.125   3.692  0.4113 -1.2158 -0.8683
   26PEO   C13117855   3.924   3.211   3.651  0.9419  0.0287  0.9174
   26PEO   C13217856   3.855   3.156   3.521 -0.4877  0.3302  0.4834
   26PEO   H13317857   3.749   3.135   3.538 -0.7000  0.2020 -0.8906
   26PEO   H13417858   3.860   3.210   3.425  0.2464 -0.6949 -0.0750
   26PEO   O13517859   3.933   3.033   3.491  0.8121 -0.1151 -0.2379
   26PEO   H13617860   3.784   2.968   3.348  0.1612  2.6112 -0.1375
   26PEO   H13717861   3.928   2.866   3.372 -2.9043 -1.3298  1.8520
   26PEO   C13817862   3.892   2.970   3.368  0.1062 -0.2145  0.8213
   26PEO   C13917863   3.943   3.035   3.244  0.4466 -0.9384 -0.2025
   26PEO   H13A17864   3.921   2.982   3.150 -0.2231 -1.1465  0.0663
   26PEO   H13B17865   3.903   3.138   3.241  1.0660 -0.6447  0.9144
   26PEO   O13C17866   4.085   3.042   3.257 -0.2078 -0.6525 -0.6207
   26PEO   H13D17867   4.115   3.246   3.197 -2.0197  0.6056 -1.1469
   26PEO   H13E17868   4.119   3.139   3.066 -1.2713  1.1909  0.2232
   26PEO   C13F17869   4.147   3.144   3.172 -0.5485  0.7284  0.0626
   26PEO   C14017870   4.305   3.121   3.189  0.3213  0.4923 -0.1102
   26PEO   H14117871   4.360   3.212   3.161 -0.2552  1.0040  0.3842
   26PEO   H14217872   4.331   3.081   3.288  1.0506 -1.5148 -1.0698
   26PEO   O14317873   4.335   3.022   3.094 -0.4350 -0.4252  0.0776
   26PEO   H14417874   4.488   2.870   3.091 -0.4363 -0.4461 -0.5851
   26PEO   H14517875   4.523   3.022   3.189  0.1999 -1.5879  0.2853
   26PEO   C14617876   4.472   2.979   3.102  0.3585 -0.3424 -0.4447
   26PEO   C14717877   4.544   3.044   2.981  0.2389 -0.0299 -0.7210
   26PEO   H14817878   4.540   3.153   2.991 -1.1073 -0.2343  1.6855
   26PEO   H14917879   4.647   3.009   2.972  0.8591  1.1353  1.2561
   26PEO   O14A17880   4.493   3.005   2.849  0.1303 -0.4737 -0.3240
   26PEO   H14B17881   4.377   3.175   2.797 -1.7886 -0.9541 -1.2358
   26PEO   H14C17882   4.434   3.074   2.656 -2.9293 -0.5195  1.3153
   26PEO   C14D17883   4.460   3.116   2.755  0.0726  0.5439  0.1632
   26PEO   C14E17884   4.586   3.191   2.737 -1.0342 -1.0141  0.3194
   26PEO   H14F17885   4.576   3.266   2.656  1.8798 -0.7532  0.1010
   26PEO   H15017886   4.610   3.242   2.831 -0.5707 -1.4421  0.4353
   26PEO   O15117887   4.679   3.092   2.689  0.1070 -0.0807 -0.2647
   26PEO   H15217888   4.736   3.208   2.536 -1.1263 -1.3743 -0.5505
   26PEO   H15317889   4.813   3.053   2.544 -1.3429  0.4791 -2.1735
   26PEO   C15417890   4.782   3.138   2.607  0.1985 -0.2963 -0.3075
   26PEO   C15517891   4.897   3.198   2.682 -0.5824  0.1765 -0.1509
   26PEO   H15617892   4.905   3.159   2.784 -1.5621  3.4088  1.2677
   26PEO   H15717893   4.995   3.186   2.632 -1.3143  0.9638 -1.8668
   26PEO   O15817894   4.877   3.341   2.677 -0.3106 -0.8378  0.2104
   26PEO   H15917895   4.963   3.407   2.855 -0.4740  0.3535  1.5789
   26PEO   H15A17896   4.798   3.360   2.877  2.1245  0.6969  2.2014
   26PEO   C15B17897   4.866   3.406   2.804  0.4488 -0.5009 -0.2306
   26PEO   C15C17898   4.808   3.546   2.789  0.1153 -0.6901  0.7739
   26PEO   H15D17899   4.812   3.596   2.887 -1.4807 -0.4618  0.7494
   26PEO   H15E17900   4.862   3.605   2.713  0.6848  1.1114  2.4814
   26PEO   O15F17901   4.672   3.527   2.750  0.4871 -0.1083 -0.5027
   26PEO   H16017902   4.592   3.699   2.640  1.6228  1.9586 -0.1953
   26PEO   H16117903   4.608   3.724   2.816 -1.0362 -2.1306  2.2927
   26PEO   C16217904   4.589   3.649   2.738 -0.1508  0.6630 -0.8487
   26PEO   C16317905   4.444   3.591   2.745  0.0152 -0.4967  0.3585
   26PEO   H16417906   4.367   3.669   2.734 -1.3264 -1.9144 -0.7054
   26PEO   H16517907   4.428   3.532   2.653 -0.6814  0.9533 -0.4879
   26PEO   O16617908   4.433   3.516   2.866 -0.3471 -0.1829 -0.1735
   26PEO   H16717909   4.323   3.680   2.960  0.7701 -0.1456  0.9855
   26PEO   H16817910   4.495   3.665   3.008 -0.4023  1.6192 -1.6587
   26PEO   C16917911   4.405   3.609   2.979  0.2709 -0.8228  0.6568
   26PEO   C16A17912   4.384   3.517   3.099 -0.3550  0.2479 -0.1331
   26PEO   H16B17913   4.294   3.455   3.090 -0.6526  0.6723 -0.1152
   26PEO   H16C17914   4.470   3.448   3.100 -0.5295  0.0329  0.1037
   26PEO   O16D17915   4.367   3.602   3.213  0.3091 -0.0856 -0.0524
   26PEO   H16E17916   4.446   3.500   3.370 -0.1043  1.2998 -2.0783
   26PEO   H16F17917   4.277   3.452   3.334 -2.5673  0.5057  1.2441
   26PEO   C17017918   4.347   3.537   3.337 -1.3146 -0.3898 -0.5006
   26PEO   C17117919   4.295   3.649   3.431 -0.3530 -0.5825 -0.1660
   26PEO   H17217920   4.286   3.603   3.531  1.5312  1.4346  1.0386
   26PEO   H17317921   4.371   3.728   3.444  0.7685 -1.7683  0.7916
   26PEO   O17417922   4.171   3.700   3.393 -0.1222  0.1768 -0.2318
   26PEO   H17517923   4.019   3.592   3.478  3.2415 -0.7232  0.4926
   26PEO   H17617924   4.087   3.513   3.334 -2.0107 -0.5156 -0.9370
   26PEO   C17717925   4.056   3.610   3.376  0.4682  0.1438 -0.4619
   26PEO   C17817926   3.959   3.683   3.283 -0.4163  0.5280  0.1562
   26PEO   H17917927   3.860   3.640   3.305  0.4156 -1.1405  0.8210
   26PEO   H17A17928   3.944   3.788   3.314  1.1455  0.3704  1.5502
   26PEO   O17B17929   4.005   3.653   3.143  0.4427  0.1019  0.6331
   26PEO   H17C17930   3.893   3.808   3.082  0.1549 -0.0156 -0.3350
   26PEO   H17D17931   3.826   3.643   3.048  0.2797  0.8825 -0.5239
   26PEO   C17E17932   3.916   3.706   3.048  0.6048  0.4417 -1.4188
   26PEO   C17F17933   3.978   3.698   2.911  0.0770 -0.4065  0.2937
   26PEO   H18017934   3.898   3.724   2.841 -0.2247  0.2490  0.8669
   26PEO   H18117935   4.068   3.760   2.902  0.4153 -0.8451  0.5743
   26PEO   O18217936   4.017   3.558   2.905 -0.4125 -0.1876 -0.1113
   26PEO   H18317937   4.195   3.560   2.795  0.6783 -1.4980  1.9448
   26PEO   H18417938   4.048   3.569   2.699 -0.3273 -0.1864  0.7546
   26PEO   C18517939   4.091   3.524   2.790  0.4923 -0.7962  0.0810
   26PEO   C18617940   4.098   3.367   2.797 -0.1346  0.3095  0.3515
   26PEO   H18717941   4.180   3.329   2.736 -1.5479 -2.4716  0.0387
   26PEO   H18817942   4.106   3.332   2.901  1.6147 -1.5242 -0.3627
   26PEO   O18917943   3.976   3.309   2.741  0.7093 -0.2429 -0.3077
   26PEO   H18A17944   4.016   3.142   2.852 -1.3473  0.3790  0.5739
   26PEO   H18B17945   4.023   3.106   2.680 -1.6800 -0.8711 -0.4379
   26PEO   C18C17946   3.969   3.166   2.755  0.0291  0.3562 -0.1179
   26PEO   C18D17947   3.823   3.107   2.766 -0.0421  0.6373 -0.6748
   26PEO   H18E17948   3.833   3.003   2.798 -0.4422  0.2252 -1.8369
   26PEO   H18F17949   3.758   3.156   2.840 -0.1620 -3.6192  2.4065
   26PEO   O19017950   3.766   3.097   2.639 -0.5784 -0.0814 -0.4722
   26PEO   H19117951   3.574   3.089   2.718 -1.5729 -3.7388  0.3847
   26PEO   H19217952   3.640   2.935   2.655  1.3347 -0.3517  0.3680
   26PEO   C19317953   3.638   3.044   2.641  0.6871 -0.3937  0.0940
   26PEO   C19417954   3.587   3.069   2.499 -0.4616  0.3754  0.4256
   26PEO   H19517955   3.662   3.060   2.419 -1.1593  2.2203 -0.4971
   26PEO   H19617956   3.510   3.003   2.457 -0.2784  1.3215 -1.4840
   26PEO   O19717957   3.534   3.206   2.499 -0.0810  0.5121  0.0310
   26PEO   H19817958   3.539   3.228   2.289 -1.0151 -2.6170 -1.0114
   26PEO   H19917959   3.460   3.353   2.379  1.5327 -0.0487 -0.3824
   26PEO   C19A17960   3.473   3.244   2.375  0.3095 -0.2158 -0.3573
   26PEO   C19B17961   3.338   3.178   2.342  0.2117 -0.4348 -0.8964
   26PEO   H19C17962   3.281   3.240   2.273  0.2973  1.9043  1.0091
   26PEO   H19D17963   3.341   3.080   2.291  0.3835  0.2465 -2.2290
   26PEO   O19E17964   3.256   3.167   2.461  0.2932  0.4898 -0.3738
   26PEO   H19F17965   3.172   3.366   2.491 -0.7967  0.6433  1.6584
   26PEO   H1A017966   3.334   3.328   2.561  0.0340 -0.1990 -0.3587
   26PEO   C1A117967   3.234   3.288   2.538 -0.1148  0.0415 -0.1349
   26PEO   C1A217968   3.168   3.246   2.668  0.2698 -0.0797 -0.5152
   26PEO   H1A317969   3.149   3.333   2.733  1.4588  0.3366 -0.6824
   26PEO   H1A417970   3.082   3.178   2.663  1.0371 -1.0893 -0.2836
   26PEO   O1A517971   3.275   3.156   2.726  0.2397 -0.3729  0.0501
   26PEO   H1A617972   3.155   3.098   2.887  0.5037  0.3472  0.4390
   26PEO   H1A717973   3.266   3.239   2.922 -0.1674  0.3046 -0.1609
   26PEO   C1A817974   3.253   3.144   2.867  0.3454  0.3515 -0.3714
   26PEO   C1A917975   3.365   3.045   2.920  0.3007 -0.5140 -1.5466
   26PEO   H1AA17976   3.338   3.008   3.020  1.3880  2.8472  0.1669
   26PEO   H1AB17977   3.384   2.964   2.849  1.9031 -0.3296 -1.3709
   26PEO   O1AC17978   3.492   3.113   2.946 -0.2101  0.1107  0.6471
   26PEO   H1AD17979   3.665   3.005   2.963 -1.4986 -0.3555 -2.3131
   26PEO   H1AE17980   3.539   2.914   3.015 -0.5290  0.1304  0.6829
   26PEO   C1AF17981   3.572   3.019   3.019 -0.5052  0.1925 -0.7359
   26PEO   C1B017982   3.581   3.060   3.169 -0.0874 -0.3374  0.5994
   26PEO   H1B117983   3.475   3.076   3.197  0.2582  0.3201  1.6101
   26PEO   H1B217984   3.615   2.978   3.233 -0.0686  1.4558  3.0353
   26PEO   O1B317985   3.667   3.172   3.197  0.3446  0.0660  0.2982
   26PEO   H1B417986   3.510   3.314   3.194  0.1440  1.0372 -0.0226
   26PEO   H1B517987   3.631   3.327   3.060 -0.1105  1.7073  0.5025
   26PEO   C1B617988   3.615   3.304   3.166  0.0534 -0.4444  0.0930
   26PEO   C1B717989   3.689   3.397   3.253  0.3122 -0.5456 -0.0546
   26PEO   H1B817990   3.795   3.369   3.246  0.9309  1.6671 -0.2996
   26PEO   H1B917991   3.678   3.499   3.215  1.7069 -0.5378 -0.4750
   26PEO   O1BA17992   3.636   3.375   3.380 -0.3573 -0.8425 -0.0747
   26PEO   H1BB17993   3.645   3.571   3.446 -3.7769 -0.5391  0.1925
   26PEO   H1BC17994   3.781   3.461   3.482  0.9401  4.2400 -0.2881
   26PEO   C1BD17995   3.672   3.469   3.477  0.5225  0.2904 -0.1628
   26PEO   C1BE17996   3.618   3.438   3.625 -0.4634 -0.3758  0.0359
   26PEO   H1BF17997   3.605   3.330   3.639 -0.6849 -0.5842 -1.6378
   26PEO   H1C017998   3.691   3.476   3.699 -0.0602  0.6902 -0.8771
   26PEO   O1C117999   3.491   3.498   3.643  0.1771 -0.5564 -0.0110
   26PEO   H1C218000   3.480   3.598   3.826  1.0268  0.4027  0.0478
   26PEO   H1C318001   3.478   3.416   3.835  0.8049 -0.3228 -0.7650
   26PEO   C1C418002   3.445   3.505   3.779 -0.0482  0.3921  0.8144
   26PEO   C1C518003   3.294   3.511   3.772  0.5334 -0.2102  0.6737
   26PEO   H1C618004   3.248   3.445   3.697  0.4819  0.4194  0.1515
   26PEO   H1C718005   3.255   3.485   3.871  2.7610 -1.5582  1.2893
   26PEO   O1C818006   3.264   3.651   3.722  0.2393 -0.4378  0.6223
   26PEO   H1C918007   3.355   3.761   3.883  0.2964 -2.2001  0.7708
   26PEO   H1CA18008   3.193   3.730   3.903 -1.2405  2.0004 -0.3742
   26PEO   C1CB18009   3.265   3.749   3.822  0.2923 -0.2716  0.3335
   26PEO   C1CC18010   3.231   3.887   3.768 -0.0703 -0.2932 -0.2980
   26PEO   H1CD18011   3.225   3.963   3.848 -2.2621 -1.6024  0.8956
   26PEO   H1CE18012   3.315   3.921   3.706  0.0187 -1.4764 -0.8422
   26PEO   O1CF18013   3.107   3.871   3.691 -0.7077 -0.2230 -0.3898
   26PEO   H1D018014   3.089   4.079   3.641 -0.2478  0.4373 -2.0989
   26PEO   H1D118015   2.957   4.023   3.744 -1.0771 -1.3437 -1.5042
   26PEO   C1D218016   3.027   3.991   3.666  1.0918 -0.0245 -0.1892
   26PEO   C1D318017   2.952   3.964   3.539  0.8985  0.4582  0.2571
   26PEO   H1D418018   2.920   3.859   3.545 -0.7086  1.0300  3.8910
   26PEO   H1D518019   2.869   4.034   3.525 -1.3309 -2.0933 -0.0271
   26PEO   O1D618020   3.051   3.979   3.428  0.1993  0.1358 -0.1061
   26PEO   H1D718021   2.924   3.953   3.261  0.4633  1.2402 -0.3814
   26PEO   H1D818022   3.004   3.798   3.311 -0.0812 -0.2921  0.1592
   26PEO   C1D918023   3.015   3.907   3.302 -0.3676 -0.2897 -0.1746
   26PEO   C1DA18024   3.137   3.930   3.221  0.4882 -0.2044  0.1856
   26PEO   H1DB18025   3.116   3.916   3.114 -1.6769  1.6914  0.2748
   26PEO   H1DC18026   3.168   4.034   3.237 -0.3901 -0.0842  1.2512
   26PEO   O1DD18027   3.241   3.838   3.265  0.3981 -0.4315  0.5870
   26PEO   H1DE18028   3.400   3.944   3.184  0.0462 -1.0421 -0.5858
   26PEO   H1DF18029   3.350   3.819   3.082  0.3194  0.1087 -0.0895
   26PEO   C1E018030   3.356   3.844   3.189 -0.3400 -0.8425  0.1838
   26PEO   C1E118031   3.459   3.755   3.266 -0.0509  0.0209  0.3417
   26PEO   H1E218032   3.404   3.667   3.304  0.4685 -0.2735  0.4290
   26PEO   H1E318033   3.524   3.707   3.191 -1.5205 -0.4441 -0.6738
   26PEO   O1E418034   3.530   3.830   3.363  0.6764  0.0724 -0.2936
   26PEO   H1E518035   3.479   3.719   3.535  2.3013 -0.4493  0.9821
   26PEO   H1E618036   3.377   3.863   3.511  0.1022  0.2237 -1.1491
   26PEO   C1E718037   3.479   3.824   3.500 -0.1940 -0.8139 -0.4059
   26PEO   C1E818038   3.577   3.908   3.586  0.4095 -0.1436 -0.1531
   26PEO   H1E918039   3.608   3.995   3.526  2.8879 -0.3446  0.7285
   26PEO   H1EA18040   3.539   3.956   3.677  1.3931  3.0203 -1.2746
   26PEO   O1EB18041   3.682   3.820   3.631  0.3525  0.4359  0.0297
   26PEO   H1EC18042   3.790   3.855   3.453  0.0359  0.3692  0.0847
   26PEO   H1ED18043   3.871   3.770   3.585 -0.4449 -1.0226 -0.0123
   26PEO   C1EE18044   3.802   3.852   3.562  0.8965  0.1498 -0.0072
   26PEO   C1EF18045   3.860   3.984   3.615  0.1051 -1.0152  0.7625
   26PEO   H1F018046   3.941   4.017   3.549 -0.3024 -0.7086  0.4130
   26PEO   H1F118047   3.780   4.059   3.607  1.5948  0.4114 -2.4007
   26PEO   O1F218048   3.911   3.955   3.738 -0.1839 -0.3853 -0.3335
   26PEO   H1F318049   3.960   4.028   3.925  0.9703 -1.2207 -0.4921
   26PEO   H1F418050   3.888   4.144   3.809 -0.1352 -0.4580  0.2953
   26PEO   C1F518051   3.958   4.061   3.820  0.2358 -0.2120 -0.1795
   26PEO   C1F618052   4.098   4.108   3.792  0.4395  0.0046 -0.9205
   26PEO   H1F718053   4.101   4.136   3.685 -1.1456  0.6981 -0.8108
   26PEO   H1F818054   4.114   4.194   3.858 -0.0639 -0.9242  0.4474
   26PEO   O1F918055   4.183   3.994   3.821 -0.5032 -0.5842 -0.3482
   26PEO   H1FA18056   4.287   3.982   3.629  1.4915 -0.2300  1.0493
   26PEO   H1FB18057   4.141   3.887   3.640  0.7081  0.5922 -3.0269
   26PEO   C1FC18058   4.228   3.921   3.699 -0.5606 -0.1802 -0.5528
   26PEO   C1FD18059   4.306   3.802   3.751 -0.3058 -0.2293  0.4116
   26PEO   H1FE18060   4.324   3.739   3.662 -2.5614 -1.0482  0.4547
   26PEO   H1FF18061   4.397   3.836   3.801 -1.1090 -0.7094  2.2598
   26PEO   O20018062   4.232   3.728   3.841 -0.5314  0.6660  0.0917
   26PEO   H20118063   4.188   3.545   3.742 -0.7363 -1.0406  1.3359
   26PEO   H20218064   4.073   3.679   3.719 -0.1483 -1.4460 -0.0916
   26PEO   C20318065   4.138   3.628   3.793  0.7200  0.4199  0.4940
   26PEO   C20418066   4.061   3.560   3.909  0.2062 -0.5128  0.7885
   26PEO   H20518067   4.009   3.470   3.871 -1.2764  0.6961 -0.1742
   26PEO   H20618068   4.130   3.535   3.992  2.3442 -2.5462 -1.4490
   26PEO   O20718069   3.961   3.655   3.952  0.4684 -0.2679  0.3314
   26PEO   H20818070   3.820   3.546   3.842 -0.8193  0.0414  0.7690
   26PEO   H20918071   3.814   3.722   3.815 -3.6305 -1.7139 -0.1712
   26PEO   C20A18072   3.828   3.644   3.890  0.0227 -0.1320  0.9835
   26PEO   C20B18073   3.711   3.661   3.990  0.3744 -0.5909  0.2382
   26PEO   H20C18074   3.745   3.739   4.059 -0.4062  1.7906 -1.9308
   26PEO   H20D18075   3.632   3.704   3.927  0.8127  0.7635  0.5844
   26PEO   O20E18076   3.676   3.541   4.054 -0.0926  0.4174 -0.0542
   26PEO   H20F18077   3.473   3.598   4.081  2.0780  2.3907 -0.9305
   26PEO   H21018078   3.566   3.620   4.230 -0.0200  0.0945 -1.1463
   26PEO   C21118079   3.556   3.557   4.140  0.1513 -1.0954 -0.3470
   26PEO   C21218080   3.505   3.427   4.199 -0.0777  0.5799 -0.1748
   26PEO   H21318081   3.586   3.358   4.225 -1.4823 -0.4662  1.7336
   26PEO   H21418082   3.461   3.441   4.299  0.5446  2.9999 -0.1900
   26PEO   O21518083   3.418   3.362   4.104 -0.0668 -0.9033 -0.6503
   26PEO   H21618084   3.257   3.284   4.220 -0.3208 -2.2567  1.5984
   26PEO   H21718085   3.395   3.171   4.179 -0.4226  0.8706  0.3242
   26PEO   C21818086   3.333   3.256   4.146 -0.7577  0.4900 -0.0345
   26PEO   C21918087   3.266   3.214   4.014  0.4197  0.5418 -0.0654
   26PEO   H21A18088   3.342   3.218   3.935  1.0953  2.2257  0.6244
   26PEO   H21B18089   3.223   3.114   4.031 -0.1855  1.2333  2.9892
   26PEO   O21C18090   3.160   3.308   3.985  0.2963  0.4268  0.0786
   26PEO   H21D18091   3.069   3.246   4.159 -2.6622 -1.8907 -0.0957
   26PEO   H21E18092   2.995   3.210   3.998 -0.5934 -0.3372 -0.1471
   26PEO   C21F18093   3.045   3.286   4.059 -0.1033 -0.5719 -0.2526
   26PEO   C22018094   2.954   3.412   4.064 -0.2830  0.1309  0.2557
   26PEO   H22118095   2.949   3.466   3.968  0.7985  0.3466  0.3062
   26PEO   H22218096   2.849   3.380   4.071  0.0429 -1.1744 -0.6984
   26PEO   O22318097   3.011   3.490   4.172 -0.3944  1.0092  0.1151
   26PEO   H22418098   2.997   3.638   4.317 -0.1512  0.0841 -0.6882
   26PEO   H22518099   2.839   3.590   4.240 -0.5129  0.0268 -2.9562
   26PEO   C22618100   2.945   3.612   4.223  0.1081 -0.8782 -0.5772
   26PEO   C22718101   2.950   3.717   4.107 -0.5513 -0.0242 -0.3310
   26PEO   H22818102   2.940   3.823   4.136 -2.2191 -0.4518  0.8193
   26PEO   H22918103   3.048   3.710   4.059 -1.6724  0.4394 -2.8461
   26PEO   O22A18104   2.834   3.698   4.032 -0.8589 -0.0504  0.8497
   26PEO   H22B18105   2.943   3.771   3.864 -1.2731  0.8009 -2.1082
   26PEO   H22C18106   2.810   3.882   3.922 -0.1701  0.0401 -1.6014
   26PEO   C22D18107   2.842   3.778   3.907 -0.6116 -0.3191 -0.2318
   26PEO   C22E18108   2.754   3.711   3.800 -0.3463 -0.3694 -0.0132
   26PEO   H22F18109   2.650   3.721   3.837 -0.4618  2.5127 -0.8488
   26PEO   H23018110   2.751   3.773   3.709 -1.1096  0.3736  0.4930
   26PEO   O23118111   2.786   3.575   3.771 -0.1926  0.0753  0.2664
   26PEO   H23218112   2.980   3.620   3.720 -0.7279 -0.1072  1.4877
   26PEO   H23318113   2.876   3.602   3.577  3.1697  2.0702  0.1570
   26PEO   C23418114   2.898   3.561   3.677 -0.6853  0.5203  0.5259
   26PEO   C23518115   2.958   3.415   3.678  0.0732  0.6722  0.5637
   26PEO   H23618116   3.052   3.408   3.621  0.1490  3.8013  0.1563
   26PEO   H23718117   2.977   3.381   3.781 -2.3494  0.5878  1.0369
   26PEO   O23818118   2.854   3.330   3.635  0.5244  0.0369  0.1580
   26PEO   H23918119   2.935   3.153   3.711 -0.9823 -0.8561  0.1150
   26PEO   H23A18120   2.987   3.189   3.546  0.2463  1.3754  0.9240
   26PEO   C23B18121   2.901   3.194   3.614 -0.5087 -0.3492  0.1575
   26PEO   C23C18122   2.789   3.101   3.551 -0.0708 -0.3194 -0.0274
   26PEO   H23D18123   2.798   2.994   3.575 -4.0734 -0.9238 -0.5153
   26PEO   H23E18124   2.695   3.136   3.596 -0.0510  1.7041 -1.4396
   26PEO   O23F18125   2.781   3.119   3.407 -0.5198 -0.4542 -0.3726
   26PEO   H24018126   2.584   3.084   3.364  0.0737  0.3478 -2.6721
   26PEO   H24118127   2.679   2.945   3.398 -0.6920  1.5671  1.6079
   26PEO   C24218128   2.685   3.043   3.349  0.7341  0.7606  0.0895
   26PEO   C24318129   2.707   3.025   3.196 -0.2268  0.5967  0.5554
   26PEO   H24418130   2.620   2.982   3.145 -2.3975  1.6958  3.0742
   26PEO   H24518131   2.720   3.130   3.165 -0.5931  0.9408  1.5298
   26PEO   O24618132   2.832   2.958   3.181  0.1345  0.3297 -0.4650
   26PEO   H24718133   2.914   3.054   3.008 -0.2227 -0.6831 -1.0269
   26PEO   H24818134   2.823   2.919   2.966  0.5881  0.6717 -0.4875
   26PEO   C24918135   2.897   2.950   3.041 -0.1446 -0.2022  0.6230
   26PEO   C24A18136   3.019   2.857   3.016  0.0388 -0.8887  1.1152
   26PEO   H24B18137   3.000   2.750   3.032  1.2450 -1.0397  1.6207
   26PEO   H24C18138   3.040   2.872   2.909  1.4350  0.7301  1.5824
   26PEO   O24D18139   3.138   2.902   3.086 -0.0965  0.2272 -0.1370
   26PEO   H24E18140   3.060   2.824   3.250  1.1869 -1.7084 -3.2772
   26PEO   H24F18141   3.061   3.003   3.252  0.9515  2.1912 -1.9800
   26PEO   C25018142   3.119   2.913   3.225 -0.4255  0.5302  0.1975
   26PEO   C25118143   3.253   2.929   3.292  0.3517 -0.2584 -0.2566
   26PEO   H25218144   3.308   3.019   3.263  2.3798 -1.4703 -0.3919
   26PEO   H25318145   3.235   2.934   3.401 -0.0000 -2.1100 -0.1874
   26PEO   O25418146   3.332   2.807   3.260  0.3003  0.4545  0.1328
   26PEO   H25518147   3.369   2.731   3.465  0.1087 -0.1328  0.4806
   26PEO   H25618148   3.482   2.848   3.409 -2.7840  0.3030  1.7820
   26PEO   C25718149   3.417   2.767   3.373 -1.5224  0.1594 -0.2935
   26PEO   C25818150   3.512   2.661   3.321 -0.3531 -0.0120  0.8722
   26PEO   H25918151   3.571   2.632   3.409  1.3183 -0.8236 -0.4572
   26PEO   H25A18152   3.453   2.572   3.296  0.4362 -0.6329  1.1484
   26PEO   O25B18153   3.598   2.710   3.220 -0.3407 -0.7386  0.1242
   26PEO   H25C18154   3.748   2.554   3.202 -1.6739 -1.2747 -1.1472
   26PEO   H25D18155   3.793   2.700   3.275 -1.6977  0.3417  0.6072
   26PEO   C25E18156   3.727   2.661   3.196 -0.4369 -0.9332  0.1217
   26PEO   C25F18157   3.771   2.691   3.050 -0.3072 -0.1444 -0.5478
   26PEO   H26018158   3.745   2.608   2.983 -0.7981 -0.1987 -0.2913
   26PEO   H26118159   3.714   2.775   3.008 -0.9640  0.3753  1.2930
   26PEO   O26218160   3.906   2.724   3.053  0.5916  0.4635  0.1001
   26PEO   H26318161   4.063   2.787   2.955 -0.1209  1.3604 -0.2545
   26PEO   H26418162   3.927   2.901   2.936  1.5696  0.2267 -1.8309
   26PEO   C26518163   3.955   2.795   2.939 -0.1882 -0.2486 -0.7681
   26PEO   C26618164   3.914   2.734   2.800  0.0275  0.2621  0.1313
   26PEO   H26718165   3.819   2.782   2.771  0.6084  0.6962 -1.1204
   26PEO   H26818166   3.988   2.763   2.724 -1.0598 -2.8349 -2.3182
   26PEO   O26918167   3.908   2.587   2.806 -0.2230 -0.4037  0.3282
   26PEO   H26A18168   3.726   2.529   2.715  0.5860  0.6242 -0.2680
   26PEO   H26B18169   3.847   2.403   2.730 -1.0390 -0.4073 -1.1797
   26PEO   C26C18170   3.834   2.510   2.707  0.5287  0.1097  0.1091
   26PEO   C26D18171   3.882   2.553   2.568 -0.1676 -0.1890 -0.0989
   26PEO   H26E18172   3.986   2.583   2.581 -0.7679  0.5573  4.3273
   26PEO   H26F18173   3.872   2.468   2.498  2.3697 -2.0654  1.6548
   26PEO   O27018174   3.788   2.652   2.520  0.5207 -0.3262  0.5972
   26PEO   H27118175   3.821   2.581   2.318 -0.3323 -1.1432  2.1040
   26PEO   H27218176   3.911   2.721   2.382  0.5221 -1.4786 -0.2292
   26PEO   C27318177   3.811   2.675   2.375 -0.2249 -0.0067  0.3295
   26PEO   C27418178   3.711   2.777   2.302 -0.1618  0.1704  0.3690
   26PEO   H27518179   3.688   2.855   2.376 -1.4313 -0.9566  1.2082
   26PEO   H27618180   3.757   2.813   2.208 -0.7241 -1.3211 -0.5188
   26PEO   O27718181   3.599   2.690   2.267 -1.0176 -0.1694 -0.0440
   26PEO   H27818182   3.461   2.840   2.311  1.8360  0.8560 -0.2967
   26PEO   H27918183   3.404   2.698   2.223  2.0707 -1.4526 -2.8528
   26PEO   C27A18184   3.486   2.771   2.230  0.4137  0.3305 -0.3052
   26PEO   C27B18185   3.512   2.846   2.095  0.2206  0.0016  0.4803
   26PEO   H27C18186   3.579   2.784   2.034 -0.6287 -0.3864 -0.0800
   26PEO   H27D18187   3.416   2.850   2.041  0.9960  1.2251 -0.8662
   26PEO   O27E18188   3.555   2.976   2.126 -0.0009  0.1484  0.1608
   26PEO   H27F18189   3.561   3.023   1.928  0.1730 -2.4230  0.5852
   26PEO   H28018190   3.716   2.985   2.009 -0.6586 -2.3027  0.6040
   26PEO   C28118191   3.621   3.039   2.019  0.5542  0.1200 -0.0396
   26PEO   C28218192   3.657   3.180   2.050 -0.5098  0.1768 -0.4694
   26PEO   H28318193   3.713   3.222   1.965 -1.3312 -0.8992 -1.5659
   26PEO   H28418194   3.562   3.234   2.060 -0.0393  1.1644 -1.1733
   26PEO   O28518195   3.744   3.184   2.166 -0.1160 -0.1593  0.7942
   26PEO   H28618196   3.723   3.401   2.189 -0.2705 -0.1710  0.7059
   26PEO   H28718197   3.879   3.338   2.124  0.1695 -2.6926 -0.5166
   26PEO   C28818198   3.798   3.320   2.196  0.1928  0.2179  0.3665
   26PEO   C28918199   3.872   3.330   2.327 -0.0661  0.6395  0.1647
   26PEO   H28A18200   3.855   3.428   2.373 -0.7979  1.1484 -1.1402
   26PEO   H28B18201   3.834   3.248   2.390  3.5311 -1.1791  0.2527
   26PEO   O28C18202   4.015   3.305   2.305 -0.4923 -0.4688 -0.0474
   26PEO   H28D18203   4.069   3.171   2.450  0.0620 -0.4898 -0.8135
   26PEO   H28E18204   4.087   3.345   2.495 -1.7476 -3.3295  2.3840
   26PEO   C28F18205   4.100   3.270   2.415 -0.5091 -0.2197 -0.5642
   26PEO   C29018206   4.246   3.251   2.366  0.3982  0.6087  0.1279
   26PEO   H29118207   4.301   3.193   2.442  0.4301  3.1578  2.2256
   26PEO   H29218208   4.250   3.195   2.272 -0.4223  2.1864 -0.8910
   26PEO   O29318209   4.302   3.386   2.371  0.4591  0.5040 -0.1837
   26PEO   H29418210   4.178   3.451   2.210  0.4191  0.2943 -0.6983
   26PEO   H29518211   4.353   3.413   2.179  1.3804  1.2065  0.7795
   26PEO   C29618212   4.281   3.456   2.250  0.0860  0.0099  0.2265
   26PEO   C29718213   4.319   3.601   2.279 -0.0218  0.1727 -0.1503
   26PEO   H29818214   4.418   3.605   2.327  1.0656 -1.3719 -2.1068
   26PEO   H29918215   4.330   3.653   2.183 -2.8848  5.5770  2.0285
   26PEO   O29A18216   4.215   3.673   2.362 -0.1806 -0.2669  0.1491
   26PEO   H29B18217   4.018   3.687   2.435  0.1483  0.1154 -0.6352
   26PEO   H29C18218   4.036   3.553   2.331 -0.1121 -0.6087  0.8841
   26PEO   C29D18219   4.078   3.653   2.350  0.5373 -0.6849 -0.0582
   26PEO   C29E18220   4.031   3.751   2.243  0.4705  0.1745  0.4596
   26PEO   H29F18221   3.922   3.765   2.251  0.3365 -1.2066  1.3833
   26PEO   H2A018222   4.076   3.849   2.263 -0.2363  0.7973 -0.8705
   26PEO   O2A118223   4.055   3.699   2.117  0.4952 -0.6188 -0.3360
   26PEO   H2A218224   4.004   3.881   2.034 -2.3796  0.3845  1.5945
   26PEO   H2A318225   3.871   3.778   2.063  0.2453  1.0427  2.4594
   26PEO   C2A418226   3.975   3.775   2.025 -0.5251 -0.0776  0.2496
   26PEO   C2A518227   3.985   3.726   1.881 -0.5655 -0.0989 -0.0315
   26PEO   H2A618228   4.014   3.621   1.864  1.9849  1.0742 -4.4044
   26PEO   H2A718229   3.892   3.749   1.827  0.7078  3.5920 -0.9575
   26PEO   O2A818230   4.080   3.812   1.818  0.4601  0.2184 -0.2344
   26PEO   H2A918231   3.984   3.792   1.635 -1.0822 -3.1638  0.5976
   26PEO   H2AA18232   4.114   3.684   1.648  1.6551  2.3548 -1.7794
   26PEO   C2AB18233   4.085   3.786   1.679 -0.5059  1.2220  0.3046
   26PEO   C2AC18234   4.188   3.879   1.608  1.1614  0.4946 -0.5964
   26PEO   H2AD18235   4.282   3.874   1.665  0.5653 -1.2800  0.3215
   26PEO   H2AE18236   4.215   3.853   1.504  0.3515 -0.6100 -0.5524
   26PEO   O2AF18237   4.127   4.009   1.602 -0.3845 -0.5134  0.0655
   26PEO   H2B018238   4.274   4.089   1.469  0.4335 -0.4668  0.6564
   26PEO   H2B118239   4.316   4.092   1.639 -1.4521 -1.9902  1.1790
   26PEO   C2B218240   4.233   4.106   1.569 -0.3952 -0.0318  0.2449
   26PEO   C2B318241   4.189   4.245   1.590  0.1906 -0.2312  0.1960
   26PEO   H2B418242   4.252   4.311   1.528 -0.7697  0.2939 -0.2556
   26PEO   H2B518243   4.085   4.261   1.559  0.2314  0.4854  0.4043
   26PEO   O2B618244   4.198   4.284   1.727  0.0333 -0.3086  0.2954
   26PEO   H2B718245   4.137   4.417   1.854 -0.3757 -1.2971 -0.7793
   26PEO   H2B818246   4.062   4.451   1.688 -0.5402  0.5812 -1.1025
   26PEO   C2B918247   4.151   4.419   1.745 -0.7735  0.4299 -0.8171
   26PEO   C2BA18248   4.260   4.521   1.716  0.4875 -0.9781 -0.1886
   26PEO   H2BB18249   4.254   4.616   1.771 -0.9126 -1.1440 -0.0192
   26PEO   H2BC18250   4.360   4.483   1.742  0.5398  0.4881  2.0457
   26PEO   O2BD18251   4.254   4.557   1.579 -0.4603 -0.3004  0.4503
   26PEO   H2BE18252   4.229   4.477   1.530 -0.5240 -1.1289  1.7735
   27PEO   H00118253   3.255   1.062   3.860  0.3748 -3.0357 -2.2713
   27PEO   H00218254   3.257   0.979   4.016 -0.4817  1.8547  1.1572
   27PEO   H00318255   3.326   1.139   4.000  1.0283 -0.8172  0.6599
   27PEO   C00418256   3.317   1.042   3.949 -0.5928  0.0378 -0.7687
   27PEO   C00518257   3.451   0.989   3.914 -0.1265  0.5802 -0.4058
   27PEO   H00618258   3.506   1.078   3.878 -0.1043  1.6657  2.1141
   27PEO   H00718259   3.487   0.953   4.011  1.2182  0.1729 -1.0398
   27PEO   O00818260   3.429   0.883   3.818  0.5388 -0.0061  0.0087
   27PEO   H00918261   3.603   0.776   3.851 -2.9109 -1.9975  0.7672
   27PEO   H00A18262   3.624   0.911   3.733  0.6803  0.4684  1.9324
   27PEO   C00B18263   3.555   0.832   3.769  0.2508 -0.0466  0.0834
   27PEO   C00C18264   3.521   0.726   3.660 -0.4155 -0.6350 -1.4368
   27PEO   H00D18265   3.606   0.658   3.645 -0.2368 -1.3522  1.9507
   27PEO   H00E18266   3.442   0.662   3.702  0.0400  1.7470  3.7914
   27PEO   O00F18267   3.479   0.799   3.550 -0.4215 -0.1148 -0.7239
   27PEO   H01018268   3.345   0.786   3.391 -0.8635 -2.6765 -1.7695
   27PEO   H01118269   3.372   0.645   3.474 -1.0035 -0.9379 -1.9123
   27PEO   C01218270   3.429   0.731   3.436 -0.3271 -0.3883  0.2310
   27PEO   C01318271   3.533   0.684   3.328  0.4099 -0.2667 -0.1043
   27PEO   H01418272   3.622   0.658   3.387  0.0144  0.9246  1.0603
   27PEO   H01518273   3.484   0.600   3.277  0.6764 -0.3243 -0.2650
   27PEO   O01618274   3.561   0.774   3.222  0.1398 -0.5203 -0.3211
   27PEO   H01718275   3.568   0.965   3.329  0.7557  1.9482 -0.8672
   27PEO   H01818276   3.616   0.964   3.164 -0.3515  1.2801  0.5123
   27PEO   C01918277   3.624   0.905   3.256  0.3646  0.5105 -0.0295
   27PEO   C01A18278   3.777   0.892   3.293  0.6780 -0.5477 -0.5566
   27PEO   H01B18279   3.829   0.858   3.202  1.9686  2.0807 -0.8885
   27PEO   H01C18280   3.833   0.984   3.312  1.5219 -1.2661  0.4917
   27PEO   O01D18281   3.806   0.793   3.397 -0.5425 -0.3137 -0.5682
   27PEO   H01E18282   3.950   0.914   3.497  0.1817 -0.4779  1.2715
   27PEO   H01F18283   4.018   0.793   3.380  1.8359  0.1879  2.5682
   27PEO   C02018284   3.940   0.813   3.454 -0.3886 -0.0732  0.4229
   27PEO   C02118285   3.944   0.716   3.574 -0.0346 -0.1444  0.4522
   27PEO   H02218286   4.021   0.752   3.643  0.8074 -2.0836  0.6002
   27PEO   H02318287   3.852   0.721   3.633 -1.3247  2.3902 -1.5524
   27PEO   O02418288   3.964   0.583   3.521  0.2728 -0.0060 -1.4612
   27PEO   H02518289   4.093   0.534   3.684 -0.5830  1.5888 -2.0135
   27PEO   H02618290   4.047   0.401   3.568  1.8580 -0.2341  1.7312
   27PEO   C02718291   4.013   0.489   3.623 -1.2279 -0.2445  0.0564
   27PEO   C02818292   3.892   0.452   3.711  0.1194  0.4261 -0.7151
   27PEO   H02918293   3.798   0.473   3.658 -0.1748  0.1985 -0.2918
   27PEO   H02A18294   3.891   0.348   3.746 -0.2745  1.2422  1.9370
   27PEO   O02B18295   3.881   0.535   3.830 -0.7579  0.4621  0.7315
   27PEO   H02C18296   3.667   0.519   3.862  0.7982  0.8134 -0.3445
   27PEO   H02D18297   3.762   0.567   4.004 -1.7027  0.3230  0.6765
   27PEO   C02E18298   3.763   0.506   3.913  0.0522  0.0094  0.8735
   27PEO   C02F18299   3.760   0.360   3.970  0.7449  0.1395  0.8945
   27PEO   H03018300   3.863   0.331   3.997  1.0575  0.6164  0.2708
   27PEO   H03118301   3.709   0.348   4.066 -3.8893 -0.0812 -1.3507
   27PEO   O03218302   3.703   0.270   3.868 -0.2936  0.1954 -0.0342
   27PEO   H03318303   3.646   0.138   4.015  2.9433 -0.6585  1.1447
   27PEO   H03418304   3.781   0.084   3.919 -1.2295 -2.2232  0.6251
   27PEO   C03518305   3.683   0.133   3.911 -0.5061 -0.8462 -0.1984
   27PEO   C03618306   3.570   0.059   3.829 -0.4191  0.5504 -0.2701
   27PEO   H03718307   3.604   0.059   3.725 -0.7018 -0.3010 -0.3707
   27PEO   H03818308   3.566  -0.047   3.858  1.3036  1.3125  3.2538
   27PEO   O03918309   3.448   0.131   3.844  0.5387  0.0685 -0.3974
   27PEO   H03A18310   3.336   0.048   3.687 -1.0321  1.9418 -0.6476
   27PEO   H03B18311   3.255   0.164   3.784 -0.4069 -0.9315 -1.4166
   27PEO   C03C18312   3.323   0.078   3.792  0.0267 -0.4802  0.2368
   27PEO   C03D18313   3.282  -0.031   3.891  0.2527 -0.9570  0.0541
   27PEO   H03E18314   3.177  -0.057   3.870  0.2471  0.9140 -2.7521
   27PEO   H03F18315   3.352  -0.112   3.866  1.8797  0.8392 -1.5565
   27PEO   O04018316   3.300   0.023   4.022  0.4993 -0.4786  0.7186
   27PEO   H04118317   3.206  -0.134   4.131  0.3950 -0.7932  3.5776
   27PEO   H04218318   3.313  -0.027   4.226  2.3998 -0.8758  0.8789
   27PEO   C04318319   3.300  -0.077   4.129  0.2137 -0.4555  0.9150
   27PEO   C04418320   3.411  -0.182   4.125  0.2822  0.0627  0.1479
   27PEO   H04518321   3.378  -0.262   4.192  2.1938 -0.3564  0.6468
   27PEO   H04618322   3.409  -0.231   4.026 -2.1981 -2.2127  1.1978
   27PEO   O04718323   3.539  -0.141   4.177  0.5720  0.5310  0.3658
   27PEO   H04818324   3.734  -0.163   4.111  1.4853 -1.3718  1.9113
   27PEO   H04918325   3.627  -0.281   4.032 -0.7433  2.3606 -1.5598
   27PEO   C04A18326   3.648  -0.229   4.127  0.0849 -0.1769 -0.2561
   27PEO   C04B18327   3.685  -0.328   4.242 -0.0282  0.1823 -0.6369
   27PEO   H04C18328   3.595  -0.369   4.289 -0.6257  1.1939 -0.8774
   27PEO   H04D18329   3.744  -0.410   4.199 -0.8247 -0.6905 -0.0830
   27PEO   O04E18330   3.757  -0.261   4.350 -0.1488 -0.2676  0.3320
   27PEO   H04F18331   3.676  -0.390   4.496 -1.3308  0.7448 -0.2476
   27PEO   H05018332   3.785  -0.271   4.562 -0.3909  0.6579 -1.1038
   27PEO   C05118333   3.768  -0.334   4.473 -0.6679 -0.3572 -0.3564
   27PEO   C05218334   3.889  -0.440   4.472  0.2620 -0.0254  0.0605
   27PEO   H05318335   3.870  -0.505   4.559  2.6827 -0.1818  0.5528
   27PEO   H05418336   3.887  -0.500   4.380  1.1161 -0.6850  0.4509
   27PEO   O05518337   4.010  -0.363   4.492 -0.2639  0.6648  0.1218
   27PEO   H05618338   4.166  -0.473   4.426 -2.1162 -0.4130  0.3108
   27PEO   H05718339   4.126  -0.519   4.594  2.1926 -1.2774 -0.2082
   27PEO   C05818340   4.134  -0.434   4.524 -0.8225 -0.1523  0.6501
   27PEO   C05918341   4.235  -0.335   4.581  0.4607 -0.0287  0.7238
   27PEO   H05A18342   4.200  -0.300   4.679 -1.1511  1.8201 -0.4462
   27PEO   H05B18343   4.336  -0.380   4.589  1.8049  2.1892 -2.0133
   27PEO   O05C18344   4.254  -0.222   4.486  0.2564 -0.0670  1.1931
   27PEO   H05D18345   4.376  -0.130   4.634  0.6222  2.1410  0.5070
   27PEO   H05E18346   4.344  -0.032   4.498  2.1486  0.2505  0.8947
   27PEO   C05F18347   4.365  -0.137   4.524 -0.3219 -0.3692  0.6863
   27PEO   C06018348   4.493  -0.175   4.443  0.0387 -0.6735  0.5772
   27PEO   H06118349   4.459  -0.203   4.342 -0.8994 -0.3376  0.7821
   27PEO   H06218350   4.569  -0.096   4.445  0.3060 -0.7979 -1.6581
   27PEO   O06318351   4.562  -0.279   4.517 -1.1032 -0.5043 -0.1735
   27PEO   H06418352   4.748  -0.217   4.444  1.3772 -1.3493 -0.6894
   27PEO   H06518353   4.694  -0.374   4.382  2.7843 -0.3679  0.1904
   27PEO   C06618354   4.696  -0.310   4.472 -0.4982 -0.0917  0.1972
   27PEO   C06718355   4.776  -0.383   4.578  0.7480  0.3412 -0.7627
   27PEO   H06818356   4.883  -0.376   4.553  0.7560  0.3494 -0.7269
   27PEO   H06918357   4.755  -0.334   4.673  0.6507  2.3483 -1.7751
   27PEO   O06A18358   4.737  -0.520   4.578 -0.5137 -0.4146 -0.5358
   27PEO   H06B18359   4.920  -0.603   4.599  0.6510 -1.8429  0.8896
   27PEO   H06C18360   4.777  -0.695   4.653 -2.0013  1.1103 -0.9699
   27PEO   C06D18361   4.827  -0.597   4.657  0.1387  0.0493 -0.0635
   27PEO   C06E18362   4.859  -0.543   4.805  0.8773  0.1528  0.7267
   27PEO   H06F18363   4.777  -0.489   4.853 -1.0384  0.7178 -2.7985
   27PEO   H07018364   4.888  -0.629   4.867  0.0073 -0.1062  0.7869
   27PEO   O07118365   4.982  -0.473   4.783  0.0408  0.0410 -0.1714
   27PEO   H07218366   5.101  -0.635   4.732  0.0336 -0.4375  0.2007
   27PEO   H07318367   5.115  -0.581   4.911  0.3901  1.8665 -0.1266
   27PEO   C07418368   5.104  -0.552   4.805  0.0622  0.2517 -0.5634
   27PEO   C07518369   5.242  -0.477   4.768 -0.0724 -0.8193 -0.1510
   27PEO   H07618370   5.267  -0.393   4.834 -1.3645 -1.6527  1.4733
   27PEO   H07718371   5.322  -0.550   4.786 -0.2748 -1.1394 -0.5328
   27PEO   O07818372   5.241  -0.438   4.631  0.3535  0.4823  0.2106
   27PEO   H07918373   5.448  -0.444   4.591  0.1672  0.4748 -1.6078
   27PEO   H07A18374   5.374  -0.280   4.615 -0.0717  0.5115  0.1422
   27PEO   C07B18375   5.359  -0.382   4.577 -0.1868  0.4700  0.2979
   27PEO   C07C18376   5.325  -0.387   4.428  0.7060 -0.5799  1.1447
   27PEO   H07D18377   5.398  -0.327   4.371 -2.9685  3.1199 -0.2083
   27PEO   H07E18378   5.328  -0.489   4.388 -0.7108 -0.5681  0.9536
   27PEO   O07F18379   5.193  -0.334   4.399 -0.4712  0.5568  0.2547
   27PEO   H08018380   5.189  -0.436   4.215  1.5055 -0.9819  2.1744
   27PEO   H08118381   5.207  -0.259   4.191  0.2784 -0.5872 -1.2103
   27PEO   C08218382   5.161  -0.337   4.254  0.1582 -0.1292 -0.7244
   27PEO   C08318383   5.006  -0.319   4.234  0.1413  0.0805 -0.6363
   27PEO   H08418384   4.980  -0.358   4.134 -0.8110 -1.0791  0.0396
   27PEO   H08518385   4.955  -0.379   4.310 -0.5375  1.0952 -0.2739
   27PEO   O08618386   4.968  -0.187   4.228  0.6835 -0.3684  0.1699
   27PEO   H08718387   5.085  -0.105   4.374 -0.7196 -0.5114  3.3899
   27PEO   H08818388   4.911  -0.109   4.413 -0.3344  0.3408 -0.1193
   27PEO   C08918389   4.984  -0.097   4.331  0.4325  0.3812  0.5563
   27PEO   C08A18390   4.955   0.042   4.264 -0.3513 -0.6657  0.6726
   27PEO   H08B18391   5.050   0.095   4.254 -0.1500 -1.0870  0.3094
   27PEO   H08C18392   4.927   0.028   4.159  0.7421 -1.5454  0.4733
   27PEO   O08D18393   4.847   0.099   4.336 -0.4878  0.2732 -0.9106
   27PEO   H08E18394   4.693   0.143   4.204  1.0082 -1.5008  0.5483
   27PEO   H08F18395   4.808   0.278   4.227 -1.3514  1.5607  2.2068
   27PEO   C09018396   4.759   0.193   4.276  0.0219 -0.2581  0.6223
   27PEO   C09118397   4.668   0.259   4.383  0.3065 -0.0146 -0.5249
   27PEO   H09218398   4.732   0.303   4.462 -1.5534  0.9035  0.5351
   27PEO   H09318399   4.611   0.347   4.352  3.0138  1.5833 -1.2398
   27PEO   O09418400   4.584   0.162   4.444  0.0961  0.3794  0.6239
   27PEO   H09518401   4.583   0.263   4.634  1.2619  0.8153 -0.8283
   27PEO   H09618402   4.475   0.125   4.616  0.2856 -0.3582 -0.4397
   27PEO   C09718403   4.516   0.212   4.563  1.3832 -0.5851  0.0267
   27PEO   C09818404   4.407   0.320   4.518 -0.5339  0.3572 -0.2814
   27PEO   H09918405   4.375   0.300   4.415  3.0785  1.3636 -1.7702
   27PEO   H09A18406   4.323   0.301   4.586 -0.4399 -0.3256 -0.3536
   27PEO   O09B18407   4.465   0.451   4.525 -0.3973 -1.1439 -0.5598
   27PEO   H09C18408   4.407   0.658   4.500 -2.9446  1.6616  0.5563
   27PEO   H09D18409   4.289   0.534   4.482  0.4760 -2.0124 -0.6228
   27PEO   C09E18410   4.393   0.558   4.456  0.2183  1.0624  0.6759
   27PEO   C09F18411   4.417   0.547   4.301  0.6405  0.1312 -0.2791
   27PEO   H0A018412   4.386   0.449   4.262 -1.7548  0.8605 -0.3675
   27PEO   H0A118413   4.339   0.614   4.262 -0.8567 -1.0057  0.6729
   27PEO   O0A218414   4.541   0.585   4.265 -0.6251 -0.6690  0.2582
   27PEO   H0A318415   4.493   0.549   4.073 -0.6662 -1.9900 -0.8587
   27PEO   H0A418416   4.613   0.429   4.154  0.7945  0.7121  0.9329
   27PEO   C0A518417   4.580   0.532   4.138 -1.1779  0.0464  0.4410
   27PEO   C0A618418   4.703   0.603   4.084  0.2106  0.8476 -0.0696
   27PEO   H0A718419   4.690   0.602   3.975 -0.3307  0.0385 -0.0129
   27PEO   H0A818420   4.704   0.706   4.123 -0.0282  0.2214  1.7014
   27PEO   O0A918421   4.826   0.533   4.121  0.3938  0.0377 -0.1744
   27PEO   H0AA18422   4.941   0.703   4.124  2.7921 -0.6223  0.9435
   27PEO   H0AB18423   4.951   0.611   3.967  0.0306 -0.0269 -0.4730
   27PEO   C0AC18424   4.940   0.603   4.076  0.2713 -0.0130 -0.4468
   27PEO   C0AD18425   5.075   0.529   4.125 -0.4450 -0.9011 -0.4897
   27PEO   H0AE18426   5.068   0.423   4.097 -0.7191 -1.1741  0.5432
   27PEO   H0AF18427   5.156   0.587   4.079 -1.1490 -0.6149 -1.3740
   27PEO   O0B018428   5.098   0.529   4.268 -0.4281  0.0692  0.2376
   27PEO   H0B118429   5.116   0.314   4.276  0.8779 -0.5502  1.0757
   27PEO   H0B218430   4.954   0.389   4.296  0.4965 -3.8460  2.3288
   27PEO   C0B318431   5.061   0.399   4.319  0.9064  0.2089 -0.3001
   27PEO   C0B418432   5.093   0.396   4.471  0.8841 -0.1375  0.1531
   27PEO   H0B518433   5.038   0.482   4.513  0.4809 -0.1347 -0.3583
   27PEO   H0B618434   5.043   0.306   4.508  0.7936 -0.2243 -0.1704
   27PEO   O0B718435   5.230   0.404   4.482 -0.3353  0.2847 -0.5541
   27PEO   H0B818436   5.216   0.351   4.682  0.5485  0.4304  0.9176
   27PEO   H0B918437   5.264   0.523   4.655  1.2911  1.1803 -1.5565
   27PEO   C0BA18438   5.272   0.420   4.618 -0.8497  0.5053 -0.2859
   27PEO   C0BB18439   5.410   0.359   4.610  0.4758 -0.7780 -0.1288
   27PEO   H0BC18440   5.484   0.428   4.567 -0.6224 -0.0363 -0.8743
   27PEO   H0BD18441   5.438   0.342   4.715  0.2348  0.1704  0.0991
   27PEO   O0BE18442   5.404   0.227   4.549  0.1646  0.4963 -0.0334
   27PEO   H0BF18443   5.565   0.172   4.657 -0.3956  0.7500  0.3663
   27PEO   H0C018444   5.599   0.214   4.484  2.9364 -0.5526  2.2593
   27PEO   C0C118445   5.533   0.159   4.553  0.3410 -0.1524  0.2302
   27PEO   C0C218446   5.525   0.005   4.509  0.6181  0.3569  0.1173
   27PEO   H0C318447   5.622  -0.042   4.533 -0.2692 -1.1088  0.9945
   27PEO   H0C418448   5.448  -0.047   4.567 -1.4213  0.2343 -2.5357
   27PEO   O0C518449   5.486  -0.007   4.365 -0.2727 -0.1259 -0.8282
   27PEO   H0C618450   5.306   0.097   4.393 -0.1834 -0.6812 -1.0464
   27PEO   H0C718451   5.296  -0.077   4.407  1.4272  1.2023  2.0396
   27PEO   C0C818452   5.346   0.004   4.351  0.6157 -0.3332 -1.0784
   27PEO   C0C918453   5.309  -0.013   4.205  0.1001 -0.5050  0.1909
   27PEO   H0CA18454   5.380  -0.082   4.158  1.1899 -0.3228  1.5044
   27PEO   H0CB18455   5.204  -0.035   4.185 -0.3121  2.0405 -0.7829
   27PEO   O0CC18456   5.332   0.127   4.146 -0.0130 -0.1069 -0.5698
   27PEO   H0CD18457   5.524   0.064   4.097 -3.4490 -0.3057 -2.2505
   27PEO   H0CE18458   5.510   0.186   4.231  1.6166 -1.0780  0.5425
   27PEO   C0CF18459   5.473   0.156   4.132 -0.1309  0.6535  0.6056
   27PEO   C0D018460   5.481   0.270   4.025 -0.2000 -0.0436 -0.0671
   27PEO   H0D118461   5.392   0.332   4.044  0.7810  1.2976  0.2495
   27PEO   H0D218462   5.572   0.328   4.044 -0.9706  0.6392  1.7281
   27PEO   O0D318463   5.486   0.207   3.895 -0.5266  0.7109  0.1875
   27PEO   H0D418464   5.524   0.398   3.812 -1.6208  1.1532  0.2395
   27PEO   H0D518465   5.359   0.351   3.804 -0.0974  0.3614  1.5201
   27PEO   C0D618466   5.460   0.309   3.799 -0.2351  0.1440  0.0906
   27PEO   C0D718467   5.487   0.237   3.664 -0.5746  0.8710  0.2684
   27PEO   H0D818468   5.493   0.306   3.579  1.0199 -0.7394 -0.9989
   27PEO   H0D918469   5.581   0.182   3.672 -0.4672  1.1923  1.4932
   27PEO   O0DA18470   5.386   0.140   3.644 -0.0081 -0.5001  0.4627
   27PEO   H0DB18471   5.490  -0.017   3.560 -1.3196 -0.9866  1.4634
   27PEO   H0DC18472   5.424   0.098   3.447 -0.0986  2.7047  1.4295
   27PEO   C0DD18473   5.401   0.044   3.540 -0.2515  0.1470 -0.0238
   27PEO   C0DE18474   5.273  -0.052   3.535 -0.5198 -0.2870 -0.2110
   27PEO   H0DF18475   5.202  -0.021   3.613 -0.9217 -0.4273 -0.5246
   27PEO   H0E018476   5.211  -0.033   3.447 -1.1333 -0.2912  0.2162
   27PEO   O0E118477   5.313  -0.194   3.545  0.7368 -0.1491 -0.1479
   27PEO   H0E218478   5.217  -0.276   3.378  0.2190 -0.3296  0.1267
   27PEO   H0E318479   5.112  -0.258   3.522 -0.4662  1.6370 -1.7744
   27PEO   C0E418480   5.213  -0.285   3.488 -0.0406  0.5568  0.2001
   27PEO   C0E518481   5.232  -0.431   3.512 -0.0805  0.2036 -0.9976
   27PEO   H0E618482   5.163  -0.485   3.445  1.5129 -1.8782 -1.0595
   27PEO   H0E718483   5.337  -0.460   3.498  0.0080  0.9216 -1.8270
   27PEO   O0E818484   5.194  -0.444   3.653 -0.0427  0.3604 -0.7699
   27PEO   H0E918485   5.282  -0.625   3.708 -1.0243 -2.1291  1.6777
   27PEO   H0EA18486   5.103  -0.632   3.662 -0.5927 -1.1421 -0.2532
   27PEO   C0EB18487   5.182  -0.578   3.715 -0.6556 -0.9671 -0.3393
   27PEO   C0EC18488   5.150  -0.544   3.861  0.0864 -0.1695 -0.4281
   27PEO   H0ED18489   5.089  -0.453   3.871 -0.0779  0.1230 -3.3573
   27PEO   H0EE18490   5.090  -0.627   3.902  0.4455  0.1645  0.8296
   27PEO   O0EF18491   5.264  -0.524   3.948 -0.1445 -0.5265 -0.3120
   27PEO   H0F018492   5.274  -0.317   3.919  2.3703  1.2496  2.4622
   27PEO   H0F118493   5.383  -0.420   3.814 -1.2320  1.6917 -0.7052
   27PEO   C0F218494   5.338  -0.406   3.913  0.1306 -0.3202  0.2594
   27PEO   C0F318495   5.447  -0.387   4.016  0.3395  0.0452 -1.1554
   27PEO   H0F418496   5.483  -0.284   4.003  0.3358  0.0379 -1.2255
   27PEO   H0F518497   5.422  -0.400   4.122  2.5069  1.8630 -0.3538
   27PEO   O0F618498   5.551  -0.490   3.985  0.4466  0.2937 -0.1180
   27PEO   H0F718499   5.472  -0.681   3.965 -0.3209 -0.7629  1.2377
   27PEO   H0F818500   5.463  -0.626   4.134  1.1126  1.0525  0.5474
   27PEO   C0F918501   5.523  -0.622   4.042  0.3668  0.2925  0.0000
   27PEO   C0FA18502   5.667  -0.675   4.078 -0.2877 -0.4086  1.0939
   27PEO   H0FB18503   5.671  -0.784   4.063 -1.2892 -0.3813  0.5334
   27PEO   H0FC18504   5.743  -0.630   4.013  0.5387 -2.3015  0.6766
   27PEO   O0FD18505   5.697  -0.634   4.206  0.5125  0.0981 -0.5556
   27PEO   H0FE18506   5.884  -0.728   4.185 -2.5280  0.7053 -2.7133
   27PEO   H0FF18507   5.759  -0.827   4.266 -0.9998 -1.0523  0.1640
   27PEO   C10018508   5.800  -0.726   4.256 -0.5124 -1.2691 -0.0703
   27PEO   C10118509   5.840  -0.665   4.394 -0.0773 -0.1820  0.6197
   27PEO   H10218510   5.743  -0.654   4.446 -1.5080  0.0699 -1.9425
   27PEO   H10318511   5.924  -0.724   4.434  0.0599 -1.1078 -0.9872
   27PEO   O10418512   5.888  -0.530   4.359  0.2325 -0.0088  0.2404
   27PEO   H10518513   6.025  -0.485   4.504  0.6619 -0.6980 -0.8254
   27PEO   H10618514   5.860  -0.441   4.558  1.2629 -0.2685  0.5202
   27PEO   C10718515   5.928  -0.445   4.472  0.6653  0.0255  0.0247
   27PEO   C10818516   5.946  -0.308   4.410 -0.6738 -0.3628 -0.5514
   27PEO   H10918517   5.899  -0.303   4.310 -2.6987  0.5452  0.3775
   27PEO   H10A18518   5.890  -0.242   4.477  0.7365 -0.6323  0.9522
   27PEO   O10B18519   6.088  -0.273   4.418  0.2817 -0.2470 -0.4616
   27PEO   H10C18520   6.102  -0.061   4.448  0.5997  0.1185  0.6708
   27PEO   H10D18521   6.061  -0.114   4.282  0.0117 -1.9868 -0.4306
   27PEO   C10E18522   6.119  -0.139   4.372  0.3770  0.5765  0.1411
   27PEO   C10F18523   6.268  -0.135   4.331  0.7852 -0.0707 -0.9483
   27PEO   H11018524   6.301  -0.030   4.322 -1.4463  0.6886 -0.8329
   27PEO   H11118525   6.331  -0.183   4.407 -0.6018 -0.8563 -0.2630
   27PEO   O11218526   6.275  -0.188   4.200 -0.1008 -0.5837  0.2729
   27PEO   H11318527   6.337  -0.020   4.086 -1.0713  1.8928 -0.1323
   27PEO   H11418528   6.163  -0.037   4.102 -0.4895 -0.5962 -2.1315
   27PEO   C11518529   6.256  -0.094   4.089  0.4573  0.1551  0.5664
   27PEO   C11618530   6.245  -0.180   3.962  0.4491  0.0420  0.5296
   27PEO   H11718531   6.275  -0.116   3.877 -0.6289  0.0199  0.1133
   27PEO   H11818532   6.304  -0.272   3.960  0.0374 -0.2974  2.2738
   27PEO   O11918533   6.104  -0.217   3.941  0.7188  0.2969 -0.2168
   27PEO   H11A18534   5.928  -0.304   3.989  0.1935 -2.2160 -1.1983
   27PEO   H11B18535   6.033  -0.251   4.131 -1.2189 -0.9127  0.0510
   27PEO   C11C18536   6.029  -0.298   4.032 -0.2845 -0.4430 -0.2221
   27PEO   C11D18537   6.083  -0.444   4.036 -0.9304  0.2003 -0.4218
   27PEO   H11E18538   6.180  -0.435   4.086 -1.7779 -1.0600  1.5868
   27PEO   H11F18539   6.022  -0.498   4.111 -2.3697  1.8709 -0.3269
   27PEO   O12018540   6.089  -0.512   3.906 -0.4291  0.1201 -0.1074
   27PEO   H12118541   6.111  -0.714   3.971  0.7817 -0.3051 -0.3995
   27PEO   H12218542   6.260  -0.631   3.929  0.2302  0.6244  0.7405
   27PEO   C12318543   6.155  -0.644   3.898  0.4005  0.5571  0.1850
   27PEO   C12418544   6.153  -0.696   3.755 -0.2384 -0.2873 -0.2663
   27PEO   H12518545   6.169  -0.608   3.691  0.9689 -0.3523 -0.0839
   27PEO   H12618546   6.229  -0.775   3.745 -0.9034 -0.8083 -1.2686
   27PEO   O12718547   6.023  -0.734   3.730  0.2884 -0.0620  0.3858
   27PEO   H12818548   6.084  -0.847   3.558  2.9773  2.0582  1.9163
   27PEO   H12918549   6.000  -0.708   3.526  2.1325  0.0538 -0.5621
   27PEO   C12A18550   6.002  -0.788   3.601  0.3486  0.2409 -0.2737
   27PEO   C12B18551   5.871  -0.870   3.622 -0.2309  0.0724  0.5043
   27PEO   H12C18552   5.852  -0.933   3.533 -4.3974  2.5286 -0.6480
   27PEO   H12D18553   5.878  -0.941   3.705 -2.8340 -0.8876  0.0157
   27PEO   O12E18554   5.761  -0.782   3.637 -0.1055  0.3809  0.4915
   27PEO   H12F18555   5.620  -0.922   3.726 -2.3835 -0.5007  0.4300
   27PEO   H13018556   5.617  -0.910   3.554 -2.5205  2.3437 -0.3360
   27PEO   C13118557   5.636  -0.850   3.644 -0.1184 -0.2406  1.0342
   27PEO   C13218558   5.529  -0.739   3.648 -0.2106  0.0102  0.1825
   27PEO   H13318559   5.433  -0.776   3.687 -1.1920  0.5776 -1.5744
   27PEO   H13418560   5.565  -0.658   3.712  1.2455  0.4451 -1.1140
   27PEO   O13518561   5.514  -0.685   3.521  0.2105 -0.2239 -0.3208
   27PEO   H13618562   5.311  -0.748   3.482 -0.8027 -1.8091 -0.5000
   27PEO   H13718563   5.426  -0.869   3.459 -0.3778  0.3117  2.9572
   27PEO   C13818564   5.413  -0.761   3.443 -0.3803 -0.0475 -0.0602
   27PEO   C13918565   5.417  -0.712   3.296 -0.4167  0.0597  0.6652
   27PEO   H13A18566   5.524  -0.705   3.273 -0.7599 -0.4137 -1.2883
   27PEO   H13B18567   5.369  -0.789   3.233 -0.0807  0.4787 -0.1149
   27PEO   O13C18568   5.352  -0.580   3.271  0.7500  0.0188  0.4232
   27PEO   H13D18569   5.308  -0.627   3.066  1.9389  0.8489 -2.0204
   27PEO   H13E18570   5.450  -0.533   3.093  0.5772  1.1245  0.9605
   27PEO   C13F18571   5.349  -0.549   3.132  0.4173 -0.0729  0.1179
   27PEO   C14018572   5.278  -0.412   3.104  0.1244  1.1633  0.5491
   27PEO   H14118573   5.337  -0.321   3.125  1.0046  1.0849 -1.3767
   27PEO   H14218574   5.251  -0.405   2.998  0.8608  0.4458  0.3066
   27PEO   O14318575   5.158  -0.404   3.177  0.1362 -1.1194 -0.6338
   27PEO   H14418576   5.011  -0.397   3.038 -1.7005  1.1220  0.6899
   27PEO   H14518577   5.094  -0.245   3.046 -0.3699 -1.2284 -1.8301
   27PEO   C14618578   5.060  -0.329   3.108  0.6634 -0.1089  0.3273
   27PEO   C14718579   4.957  -0.285   3.208 -0.4136 -0.1826  0.3081
   27PEO   H14818580   4.860  -0.267   3.160 -0.9979  0.2785  1.5952
   27PEO   H14918581   4.934  -0.359   3.286 -2.3895 -0.9045 -0.8977
   27PEO   O14A18582   4.999  -0.158   3.263  0.5739 -0.1750  0.6113
   27PEO   H14B18583   4.824  -0.071   3.237  0.2339 -0.3183 -0.0287
   27PEO   H14C18584   4.931   0.017   3.343  2.1917 -0.5780  0.9629
   27PEO   C14D18585   4.894  -0.084   3.321 -0.2215  0.3599  0.4626
   27PEO   C14E18586   4.825  -0.142   3.441 -0.0132  0.5724 -0.3082
   27PEO   H14F18587   4.739  -0.077   3.462  1.2668  2.7958 -1.5461
   27PEO   H15018588   4.798  -0.248   3.432  0.8696  0.2604  0.5748
   27PEO   O15118589   4.906  -0.115   3.562 -0.1101  0.1135 -0.2579
   27PEO   H15218590   4.817  -0.276   3.643  2.5403  0.2250 -0.9203
   27PEO   H15318591   4.763  -0.126   3.728  2.6286 -0.5532  4.7471
   27PEO   C15418592   4.846  -0.175   3.676  0.7214  0.3505  0.4353
   27PEO   C15518593   4.948  -0.199   3.783 -0.2610 -0.3204 -0.5353
   27PEO   H15618594   4.918  -0.282   3.848  0.1098 -1.5435 -1.8820
   27PEO   H15718595   5.047  -0.227   3.745  0.3038 -0.2656  0.8465
   27PEO   O15818596   4.961  -0.080   3.859  0.0545  0.1225 -0.2175
   27PEO   H15918597   5.035   0.050   3.709  1.6043  0.8292  0.2923
   27PEO   H15A18598   5.157  -0.014   3.812  0.4131 -0.6532 -0.6495
   27PEO   C15B18599   5.053   0.020   3.813  0.5243 -0.3195  0.1646
   27PEO   C15C18600   5.081   0.129   3.910 -0.0695 -0.7075 -0.1812
   27PEO   H15D18601   5.098   0.099   4.015  0.8182  1.3209  0.3089
   27PEO   H15E18602   5.182   0.155   3.878 -0.9634  0.2919 -2.3646
   27PEO   O15F18603   4.997   0.245   3.886 -0.2809  0.8073 -0.0242
   27PEO   H16018604   4.873   0.256   4.046 -0.4289 -3.2931  0.6375
   27PEO   H16118605   4.821   0.135   3.910 -0.8229  1.1959 -0.3375
   27PEO   C16218606   4.867   0.231   3.939  0.6324  0.5455 -0.4630
   27PEO   C16318607   4.782   0.341   3.868 -0.4100 -0.2626  0.5495
   27PEO   H16418608   4.675   0.333   3.890 -0.4542 -6.1576 -0.2459
   27PEO   H16518609   4.827   0.436   3.902 -3.0275  0.4226  2.3665
   27PEO   O16618610   4.798   0.328   3.729 -0.4174  0.3523 -0.4347
   27PEO   H16718611   4.622   0.237   3.672  0.0721  0.1851 -0.2302
   27PEO   H16818612   4.764   0.127   3.705  1.9192  0.4797 -0.2005
   27PEO   C16918613   4.731   0.223   3.661  0.0226 -0.1680 -0.2605
   27PEO   C16A18614   4.779   0.229   3.518 -0.1355 -0.6800 -0.5167
   27PEO   H16B18615   4.875   0.283   3.512 -0.9555  0.8256 -0.5156
   27PEO   H16C18616   4.782   0.127   3.476 -0.3323 -0.7846 -0.2799
   27PEO   O16D18617   4.684   0.311   3.450  0.5499  0.3220  0.0503
   27PEO   H16E18618   4.616   0.393   3.269 -0.8108 -1.1785  0.4927
   27PEO   H16F18619   4.666   0.227   3.260  0.4193 -0.4660 -2.2872
   27PEO   C17018620   4.693   0.323   3.306 -0.7862 -1.2693  0.2733
   27PEO   C17118621   4.829   0.379   3.271  0.5058  0.1724  0.3274
   27PEO   H17218622   4.821   0.452   3.189 -2.2891 -0.8219 -0.4104
   27PEO   H17318623   4.860   0.434   3.361 -0.1269  0.7559  0.1993
   27PEO   O17418624   4.931   0.275   3.248  0.0563 -1.5733  0.5936
   27PEO   H17518625   5.077   0.437   3.208  2.2252 -0.0385 -1.3686
   27PEO   H17618626   5.108   0.272   3.141 -1.1067 -2.3023  0.2958
   27PEO   C17718627   5.068   0.329   3.226  0.5702  0.2174 -0.4827
   27PEO   C17818628   5.143   0.287   3.353 -0.5024 -0.9300 -1.1136
   27PEO   H17918629   5.129   0.180   3.376 -1.3408 -0.6890 -0.4533
   27PEO   H17A18630   5.251   0.299   3.334 -0.7545 -0.6035 -2.4168
   27PEO   O17B18631   5.105   0.378   3.459 -0.2371  0.3232  0.0799
   27PEO   H17C18632   5.261   0.360   3.593 -0.5915  0.3665  0.8110
   27PEO   H17D18633   5.127   0.255   3.641 -0.8048  1.5690  2.6095
   27PEO   C17E18634   5.151   0.352   3.593 -0.5901  0.0780 -0.5838
   27PEO   C17F18635   5.093   0.466   3.675  0.2983  0.1794 -0.1007
   27PEO   H18018636   4.985   0.456   3.659  0.0736 -3.2068  2.4398
   27PEO   H18118637   5.111   0.442   3.781 -0.9089  3.2043  0.9188
   27PEO   O18218638   5.140   0.604   3.646 -0.0742  0.4360  0.1334
   27PEO   H18318639   5.296   0.726   3.610 -0.2361 -0.4784 -0.4745
   27PEO   H18418640   5.347   0.554   3.624 -0.9240 -1.1153  1.0608
   27PEO   C18518641   5.282   0.632   3.666  0.1665  0.0795  0.5776
   27PEO   C18618642   5.310   0.665   3.812 -0.1937 -0.0813 -0.9451
   27PEO   H18718643   5.248   0.608   3.882 -0.1363  0.0574 -0.7805
   27PEO   H18818644   5.417   0.644   3.829 -0.1379  2.0893  2.2035
   27PEO   O18918645   5.296   0.811   3.830  0.2468  0.0995  0.4229
   27PEO   H18A18646   5.113   0.802   3.919  2.5778 -0.6317 -0.1730
   27PEO   H18B18647   5.104   0.825   3.741 -2.2743  1.4108 -0.5287
   27PEO   C18C18648   5.158   0.853   3.832 -0.1938  0.1064 -1.2762
   27PEO   C18D18649   5.149   1.013   3.853 -0.6024  0.7528  0.5902
   27PEO   H18E18650   5.240   1.066   3.821 -0.6790  0.3220 -0.3940
   27PEO   H18F18651   5.067   1.056   3.793 -0.2273  0.1816 -0.3535
   27PEO   O19018652   5.130   1.037   3.992  0.3752 -0.4623  0.1573
   27PEO   H19118653   5.028   1.226   3.968  0.9959  0.6388 -1.0577
   27PEO   H19218654   5.202   1.228   3.982  0.7876 -1.5094  0.9740
   27PEO   C19318655   5.112   1.179   4.021 -0.2650 -0.2280  0.2537
   27PEO   C19418656   5.118   1.207   4.171 -0.3359 -0.1790 -0.0755
   27PEO   H19518657   5.203   1.159   4.220 -1.2455 -1.8960 -0.1083
   27PEO   H19618658   5.122   1.316   4.186 -0.1883 -0.3083  0.8319
   27PEO   O19718659   5.002   1.160   4.246  0.8778  0.1607  0.1092
   27PEO   H19818660   4.836   1.195   4.128  2.0178 -1.2121 -0.7071
   27PEO   H19918661   4.878   1.334   4.225  0.2404 -0.1676 -0.4854
   27PEO   C19A18662   4.876   1.224   4.227  0.4211 -0.1682 -0.3179
   27PEO   C19B18663   4.788   1.171   4.351 -0.2876  1.3563 -0.4152
   27PEO   H19C18664   4.838   1.193   4.446  0.6010  0.3026 -0.6128
   27PEO   H19D18665   4.685   1.211   4.350 -1.0431 -0.4051  0.8666
   27PEO   O19E18666   4.762   1.035   4.329  0.1060  0.3912 -0.1430
   27PEO   H19F18667   4.613   0.988   4.463  0.6693  0.2733  0.5664
   27PEO   H1A018668   4.778   0.994   4.541 -1.9258 -1.4216  2.0605
   27PEO   C1A118669   4.720   0.964   4.452  0.5699  0.1977 -0.2945
   27PEO   C1A218670   4.723   0.814   4.425  0.3684  0.0151  0.3444
   27PEO   H1A318671   4.623   0.788   4.386  0.5822  1.1732 -1.0601
   27PEO   H1A418672   4.804   0.780   4.358 -1.6697 -0.8898 -1.8196
   27PEO   O1A518673   4.758   0.744   4.546 -0.1440  0.0710  0.7496
   27PEO   H1A618674   4.838   0.563   4.476 -0.5357 -1.1447  0.2298
   27PEO   H1A718675   4.654   0.578   4.488 -0.5204 -0.0092  1.2141
   27PEO   C1A818676   4.752   0.603   4.531 -0.0699 -0.3419  0.4012
   27PEO   C1A918677   4.763   0.548   4.672  0.0886  0.0147 -0.1085
   27PEO   H1AA18678   4.686   0.577   4.745 -0.9384 -3.6576  0.4609
   27PEO   H1AB18679   4.743   0.441   4.662  0.0559 -0.0533  0.6592
   27PEO   O1AC18680   4.895   0.580   4.733 -0.2585 -0.0752  0.2750
   27PEO   H1AD18681   5.033   0.531   4.876 -1.1784  1.1417  2.1430
   27PEO   H1AE18682   4.967   0.395   4.795  4.9785  0.9493  0.7573
   27PEO   C1AF18683   4.937   0.491   4.839  0.0403  0.1049 -0.0772
   27PEO   C1B018684   4.844   0.473   4.967 -0.4176 -0.3440 -0.3659
   27PEO   H1B118685   4.895   0.420   5.049  3.1629  0.3607 -1.9178
   27PEO   H1B218686   4.816   0.574   5.001  1.1589  0.5639 -1.6279
   27PEO   O1B318687   4.726   0.394   4.925 -0.0035  0.0107 -0.0517
   27PEO   H1B418688   4.568   0.277   5.000 -1.2051 -1.1379 -0.1678
   27PEO   H1B518689   4.698   0.293   5.118  0.3447  0.0363 -0.4653
   27PEO   C1B618690   4.678   0.286   5.010 -1.2734 -0.2662 -0.1694
   27PEO   C1B718691   4.728   0.150   4.956 -0.4105  0.3124 -0.1205
   27PEO   H1B818692   4.837   0.142   4.951 -0.2371  0.8158  1.9375
   27PEO   H1B918693   4.711   0.084   5.042  1.4080  0.7294  0.5998
   27PEO   O1BA18694   4.652   0.115   4.842  0.6428 -0.4707  0.2456
   27PEO   H1BB18695   4.576  -0.049   4.724  1.1638 -0.7832 -1.0401
   27PEO   H1BC18696   4.670  -0.092   4.876  1.3994 -3.0242 -2.4244
   27PEO   C1BD18697   4.659  -0.023   4.792 -0.2423  0.3973  0.3173
   27PEO   C1BE18698   4.786  -0.039   4.700 -0.5061  0.7018  0.9335
   27PEO   H1BF18699   4.770  -0.129   4.639  0.4167 -0.3783  2.2330
   27PEO   H1C018700   4.788   0.050   4.635 -2.8978 -0.1338 -0.4456
   27PEO   O1C118701   4.907  -0.055   4.774  0.7697  0.7069  0.4266
   27PEO   H1C218702   5.015  -0.025   4.595 -0.0507 -1.7997 -1.4318
   27PEO   H1C318703   5.017  -0.189   4.671  1.7903  0.8134  2.2201
   27PEO   C1C418704   5.017  -0.080   4.690 -0.4920  1.1967  0.4332
   27PEO   C1C518705   5.140  -0.036   4.773 -0.1670  0.3832 -0.0781
   27PEO   H1C618706   5.143  -0.096   4.866  0.5773 -0.9183 -0.9145
   27PEO   H1C718707   5.232  -0.062   4.719  0.1570 -0.5299  0.8601
   27PEO   O1C818708   5.126   0.103   4.801 -0.5211  0.3793 -0.2580
   27PEO   H1C918709   5.152   0.065   5.007  1.3777  0.3175  0.2094
   27PEO   H1CA18710   5.142   0.234   4.958 -1.4003  0.2491 -2.2497
   27PEO   C1CB18711   5.184   0.136   4.929  0.0293  0.2573 -0.4240
   27PEO   C1CC18712   5.340   0.129   4.925  0.3204  0.4684  0.0494
   27PEO   H1CD18713   5.377   0.152   4.824  0.5961 -2.3265 -0.5636
   27PEO   H1CE18714   5.384   0.209   4.986 -1.4218  1.1428  0.4780
   27PEO   O1CF18715   5.388   0.004   4.971  0.0268  0.1336 -0.0415
   27PEO   H1D018716   5.575   0.085   5.010 -1.1610  0.6427 -0.2384
   27PEO   H1D118717   5.571  -0.043   4.887  1.0917 -2.9087  0.7099
   27PEO   C1D218718   5.532  -0.013   4.985 -0.1093  0.2555 -0.5950
   27PEO   C1D318719   5.571  -0.125   5.088 -0.0398 -0.4120  0.1390
   27PEO   H1D418720   5.535  -0.224   5.055 -0.5267  0.5534 -2.4750
   27PEO   H1D518721   5.680  -0.134   5.091 -0.2419 -3.2851  1.3705
   27PEO   O1D618722   5.521  -0.095   5.218 -0.1907 -0.8145  0.3987
   27PEO   H1D718723   5.666  -0.160   5.355  0.9156  0.0906 -1.1825
   27PEO   H1D818724   5.571  -0.294   5.278 -0.1312 -1.1609  2.7567
   27PEO   C1D918725   5.568  -0.191   5.315  0.5675  0.0625 -0.3471
   27PEO   C1DA18726   5.460  -0.202   5.421 -0.3041 -0.0976 -0.3221
   27PEO   H1DB18727   5.361  -0.231   5.384 -0.7299  1.9769 -0.9321
   27PEO   H1DC18728   5.484  -0.278   5.496  0.7746  0.0718 -0.4791
   27PEO   O1DD18729   5.453  -0.074   5.493  0.2063  0.2006 -0.7116
   27PEO   H1DE18730   5.370   0.005   5.660  0.1469  0.4051  0.5402
   27PEO   H1DF18731   5.353  -0.176   5.657 -3.6771 -1.2443 -0.6875
   27PEO   C1E018732   5.347  -0.083   5.598  0.3221  0.1691  0.8091
   27PEO   C1E118733   5.202  -0.079   5.545 -1.1297  0.1237 -0.5367
   27PEO   H1E218734   5.197  -0.140   5.454 -2.4082  0.0957 -0.4535
   27PEO   H1E318735   5.142  -0.124   5.624  1.1000 -0.9726  0.6250
   27PEO   O1E418736   5.166   0.057   5.504  0.0577 -0.7762  0.5569
   27PEO   H1E518737   5.202   0.035   5.294 -1.9678  0.5887 -0.0357
   27PEO   H1E618738   5.329   0.110   5.393 -0.1588 -0.5908  3.3089
   27PEO   C1E718739   5.221   0.107   5.375  0.3026  1.0532 -0.9160
   27PEO   C1E818740   5.172   0.246   5.336  0.2387  0.4639  0.0925
   27PEO   H1E918741   5.152   0.320   5.416 -1.5874 -1.2089  1.2796
   27PEO   H1EA18742   5.236   0.307   5.271  0.4342  0.8340  0.6185
   27PEO   O1EB18743   5.046   0.226   5.267 -0.7243 -0.2925  0.0535
   27PEO   H1EC18744   4.936   0.058   5.331 -1.3498  0.5627  2.6448
   27PEO   H1ED18745   4.840   0.178   5.259  0.3682  1.5216 -0.5780
   27PEO   C1EE18746   4.928   0.168   5.325 -0.2206  0.5719  0.0819
   27PEO   C1EF18747   4.898   0.226   5.465  0.3984  0.5629  0.4486
   27PEO   H1F018748   4.914   0.149   5.543 -2.2447 -0.1397  0.3837
   27PEO   H1F118749   4.956   0.317   5.487  0.1628  0.6349  0.7802
   27PEO   O1F218750   4.753   0.252   5.467 -0.4246 -0.8607 -0.0747
   27PEO   H1F318751   4.755   0.422   5.592 -0.6639 -0.7288  0.1643
   27PEO   H1F418752   4.708   0.276   5.674  1.6822 -0.8183 -1.4698
   27PEO   C1F518753   4.700   0.329   5.578 -1.4341 -0.1324 -0.9261
   27PEO   C1F618754   4.552   0.355   5.563  0.1995 -0.2363 -1.0377
   27PEO   H1F718755   4.510   0.271   5.505  1.4886  0.0913 -2.5037
   27PEO   H1F818756   4.489   0.366   5.653  0.1112  1.6650 -1.2928
   27PEO   O1F918757   4.514   0.468   5.487 -0.2802 -0.3985  0.9333
   27PEO   H1FA18758   4.459   0.373   5.312 -0.1355 -1.0201 -2.1490
   27PEO   H1FB18759   4.627   0.409   5.312 -2.3466 -3.3381 -1.0159
   27PEO   C1FC18760   4.530   0.451   5.343 -1.0561 -1.0203  0.1864
   27PEO   C1FD18761   4.509   0.592   5.280 -0.5224 -0.2408 -0.1030
   27PEO   H1FE18762   4.508   0.600   5.171  0.7279 -2.1993 -0.3193
   27PEO   H1FF18763   4.417   0.635   5.322 -1.0428 -3.5190  2.5999
   27PEO   O20018764   4.605   0.674   5.341 -0.2775 -0.5185 -0.2936
   27PEO   H20118765   4.689   0.865   5.368  1.1810 -0.0103 -1.0359
   27PEO   H20218766   4.524   0.845   5.428  1.7467 -1.3639  1.6591
   27PEO   C20318767   4.592   0.819   5.345  0.5190  0.9367 -0.2089
   27PEO   C20418768   4.542   0.872   5.210  0.4804 -0.0629 -0.7307
   27PEO   H20518769   4.447   0.827   5.179  0.8108  0.6053 -2.8748
   27PEO   H20618770   4.535   0.982   5.218 -0.4097 -0.1722  0.2319
   27PEO   O20718771   4.641   0.839   5.102 -0.0538 -0.5948  0.2152
   27PEO   H20818772   4.538   0.965   4.983  0.3609  0.8946  2.7566
   27PEO   H20918773   4.524   0.795   4.932 -0.3257 -0.7245  1.8903
   27PEO   C20A18774   4.592   0.870   4.975 -0.7009  0.4239  0.5466
   27PEO   C20B18775   4.720   0.873   4.879 -0.5958  0.5316  0.1075
   27PEO   H20C18776   4.780   0.782   4.892 -2.0086 -0.3150  1.0245
   27PEO   H20D18777   4.696   0.887   4.773 -0.3872 -0.3548 -0.0656
   27PEO   O20E18778   4.795   0.985   4.915  0.4572  0.1683 -0.3882
   27PEO   H20F18779   4.634   1.115   4.854 -0.0618 -0.0218 -3.4593
   27PEO   H21018780   4.769   1.115   4.743 -0.0720 -2.7830 -0.2424
   27PEO   C21118781   4.743   1.108   4.850  0.2395  0.3432  0.1298
   27PEO   C21218782   4.806   1.230   4.925 -0.3687  0.3355  0.8483
   27PEO   H21318783   4.742   1.316   4.901  1.9718  1.6153 -1.3321
   27PEO   H21418784   4.801   1.204   5.031 -0.7826  1.0292  1.0046
   27PEO   O21518785   4.945   1.241   4.873 -0.2976  0.3948 -0.3492
   27PEO   H21618786   5.048   1.204   5.047 -0.6516 -2.7670 -2.5778
   27PEO   H21718787   5.000   1.378   5.019  1.8392 -1.0642  3.3848
   27PEO   C21818788   5.033   1.284   4.973 -0.4416 -0.3199 -0.1408
   27PEO   C21918789   5.170   1.311   4.902 -0.5972  0.3917  0.1629
   27PEO   H21A18790   5.144   1.368   4.811  0.2300 -0.8977 -0.9161
   27PEO   H21B18791   5.236   1.379   4.958  3.0178 -1.2110 -1.7854
   27PEO   O21C18792   5.245   1.190   4.867  0.6140 -0.8262 -0.4102
   27PEO   H21D18793   5.358   1.039   4.948 -0.3843 -1.8195  2.6172
   27PEO   H21E18794   5.205   1.061   5.026 -0.0442  0.1882 -0.4166
   27PEO   C21F18795   5.290   1.117   4.983  0.3939  0.0424  0.2323
   27PEO   C22018796   5.361   1.201   5.093  0.4206  0.3152  0.2237
   27PEO   H22118797   5.428   1.135   5.150 -0.4726 -0.6102  0.2380
   27PEO   H22218798   5.423   1.283   5.053  2.7976 -1.1882  0.6504
   27PEO   O22318799   5.264   1.245   5.188  0.6989 -0.3579 -0.7796
   27PEO   H22418800   5.383   1.392   5.270  0.4228  0.4466  0.8725
   27PEO   H22518801   5.363   1.235   5.366  1.5041 -1.2915 -2.1352
   27PEO   C22618802   5.315   1.314   5.306  0.6310 -0.2170 -0.1447
   27PEO   C22718803   5.199   1.383   5.382 -0.8006 -0.2200  0.1740
   27PEO   H22818804   5.118   1.308   5.385  0.2339 -1.4698 -1.4974
   27PEO   H22918805   5.226   1.417   5.484  0.0344  1.2934 -0.5183
   27PEO   O22A18806   5.153   1.489   5.300 -0.1891 -0.1485  0.0066
   27PEO   H22B18807   5.035   1.596   5.438 -0.2156 -0.4895  0.4226
   27PEO   H22C18808   4.945   1.494   5.329 -0.6269  0.4324  1.7118
   27PEO   C22D18809   5.033   1.560   5.334 -0.0452 -0.2051  0.3184
   27PEO   C22E18810   5.027   1.681   5.234  0.1632  0.4248 -0.4583
   27PEO   H22F18811   4.981   1.764   5.291  0.9049  0.2712  0.4027
   27PEO   H23018812   5.130   1.711   5.208  0.3089 -0.2955 -0.7108
   27PEO   O23118813   4.947   1.641   5.117 -0.0254  0.7379 -0.7544
   27PEO   H23218814   4.996   1.817   4.998  1.9103 -1.8203  1.3986
   27PEO   H23318815   4.853   1.829   5.102 -0.9364 -2.1150  0.7394
   27PEO   C23418816   4.911   1.760   5.038  0.0103 -0.3791 -0.3650
   27PEO   C23518817   4.826   1.724   4.909 -0.6382 -0.2203 -0.0512
   27PEO   H23618818   4.756   1.651   4.951  0.4997 -1.2932  0.0326
   27PEO   H23718819   4.771   1.809   4.867  0.1899 -1.0719 -3.0809
   27PEO   O23818820   4.907   1.677   4.799  0.3368 -0.2305  0.5551
   27PEO   H23918821   4.810   1.704   4.612  0.7253  0.6522  0.7245
   27PEO   H23A18822   4.730   1.582   4.714 -0.0444  0.8789  0.2430
   27PEO   C23B18823   4.827   1.625   4.687  0.2986  0.1486  0.2998
   27PEO   C23C18824   4.903   1.506   4.626  0.8534 -0.2101 -0.7231
   27PEO   H23D18825   4.961   1.445   4.697  0.4123 -1.3978 -1.3498
   27PEO   H23E18826   4.828   1.435   4.585 -0.6781  0.0357  1.4551
   27PEO   O23F18827   4.990   1.566   4.532 -0.2546  0.5299 -0.3137
   27PEO   H24018828   5.025   1.414   4.394  0.8973  1.3210 -1.0340
   27PEO   H24118829   5.109   1.414   4.552 -1.3670  1.2119  2.1170
   27PEO   C24218830   5.077   1.477   4.468 -0.2347  0.1558  0.8451
   27PEO   C24318831   5.202   1.546   4.410 -0.3164 -0.2526  0.2484
   27PEO   H24418832   5.234   1.634   4.468 -0.5297 -0.1452  0.2053
   27PEO   H24518833   5.289   1.479   4.410 -1.2397 -1.5337  2.0858
   27PEO   O24618834   5.165   1.588   4.272  0.4478 -1.4238 -0.0950
   27PEO   H24718835   5.150   1.795   4.320 -1.1237  1.0334 -1.0062
   27PEO   H24818836   4.995   1.716   4.324  0.3623 -1.4777 -0.1349
   27PEO   C24918837   5.091   1.717   4.271  0.0616 -0.0905 -0.7015
   27PEO   C24A18838   5.075   1.757   4.122 -0.4891  0.3122  0.5126
   27PEO   H24B18839   5.085   1.866   4.117  0.5229  0.3224  1.9583
   27PEO   H24C18840   5.157   1.715   4.061  0.8220  0.6137  1.9998
   27PEO   O24D18841   4.939   1.717   4.087 -1.3781 -0.0060  0.0416
   27PEO   H24E18842   4.959   1.505   4.134 -0.8226 -1.7405 -0.8179
   27PEO   H24F18843   4.978   1.566   3.962  0.0862  0.1137 -0.1535
   27PEO   C25018844   4.927   1.579   4.059  0.3170 -0.3398  0.0282
   27PEO   C25118845   4.778   1.551   4.032  0.5068  1.0404  0.5885
   27PEO   H25218846   4.718   1.576   4.121  1.2882  0.8705  1.1726
   27PEO   H25318847   4.746   1.604   3.941 -0.8057  2.4982  1.8399
   27PEO   O25418848   4.771   1.406   4.013 -0.0679  0.3033 -0.2418
   27PEO   H25518849   4.674   1.254   3.921 -1.4341 -1.4835  1.8714
   27PEO   H25618850   4.604   1.412   3.869 -0.1599 -1.5226 -0.4946
   27PEO   C25718851   4.649   1.356   3.953  0.3985 -0.3755 -0.0117
   27PEO   C25818852   4.537   1.337   4.060 -0.9209  0.6234 -0.2712
   27PEO   H25918853   4.479   1.244   4.051 -0.3182  0.2692 -0.5394
   27PEO   H25A18854   4.583   1.319   4.158 -1.3472  4.1560  0.7285
   27PEO   O25B18855   4.444   1.456   4.065  0.0663 -0.0172 -0.1998
   27PEO   H25C18856   4.400   1.448   4.283 -3.8641  1.0590  2.1433
   27PEO   H25D18857   4.293   1.373   4.166 -0.3583  0.5532 -0.9920
   27PEO   C25E18858   4.356   1.461   4.183 -0.0310  0.1213  0.1195
   27PEO   C25F18859   4.263   1.590   4.177 -0.1764  0.6376 -0.4783
   27PEO   H26018860   4.194   1.570   4.093 -0.8619  2.2560 -0.3392
   27PEO   H26118861   4.213   1.606   4.273 -0.0673 -0.6399 -0.2040
   27PEO   O26218862   4.354   1.693   4.142 -0.6002 -0.0328  0.1649
   27PEO   H26318863   4.245   1.854   4.229 -2.4482  0.9220 -2.6176
   27PEO   H26418864   4.246   1.849   4.058  0.6560 -0.9760 -0.9782
   27PEO   C26518865   4.311   1.831   4.144 -0.0042 -0.7196 -0.4184
   27PEO   C26618866   4.425   1.940   4.160 -0.0679  0.1803  0.2275
   27PEO   H26718867   4.511   1.927   4.093  2.1057  1.3925  2.6285
   27PEO   H26818868   4.396   2.045   4.144  0.9171  0.7115  1.7601
   27PEO   O26918869   4.484   1.927   4.292 -0.9060  0.0864 -0.5020
   27PEO   H26A18870   4.686   1.857   4.325  1.1459 -3.8646 -0.3127
   27PEO   H26B18871   4.582   1.739   4.236 -0.0734 -0.6095 -0.5852
   27PEO   C26C18872   4.584   1.819   4.312 -0.3557 -0.0458 -1.1609
   27PEO   C26D18873   4.551   1.742   4.449 -0.6335  0.3602 -0.1252
   27PEO   H26E18874   4.455   1.692   4.431 -0.0490 -0.4237 -1.1860
   27PEO   H26F18875   4.629   1.673   4.485  0.0630  2.5633  3.0027
   27PEO   O27018876   4.544   1.839   4.550 -0.2540  0.4623 -0.0733
   27PEO   H27118877   4.564   1.717   4.715  1.4252  1.3689  0.1570
   27PEO   H27218878   4.398   1.732   4.669  1.2074 -1.3608 -0.6621
   27PEO   C27318879   4.492   1.790   4.674  0.3581  0.0287 -0.4201
   27PEO   C27418880   4.466   1.911   4.777 -0.2694  0.9801  0.2024
   27PEO   H27518881   4.366   1.952   4.758 -0.2364  1.3851  0.8564
   27PEO   H27618882   4.451   1.857   4.872  2.7006 -1.2013 -0.4177
   27PEO   O27718883   4.579   2.005   4.790 -0.8115 -0.0112  0.0105
   27PEO   H27818884   4.656   2.175   4.894 -0.7395  0.4240  2.5506
   27PEO   H27918885   4.537   2.076   4.982  0.2622  1.9284  0.7147
   27PEO   C27A18886   4.566   2.113   4.882 -0.0747 -0.1363 -0.1874
   27PEO   C27B18887   4.455   2.206   4.847  1.1998  0.8065  0.5719
   27PEO   H27C18888   4.361   2.150   4.845  0.9085  1.2931  0.0770
   27PEO   H27D18889   4.439   2.280   4.928 -1.2616 -2.6690  3.5807
   27PEO   O27E18890   4.480   2.259   4.724 -0.4585 -0.2405 -0.1265
   27PEO   H27F18891   4.381   2.439   4.686  1.0128 -0.0260 -0.3990
   27PEO   H28018892   4.273   2.305   4.729  0.6895 -0.0934  1.8610
   27PEO   C28118893   4.364   2.331   4.672 -0.4857  0.1348 -0.0016
   27PEO   C28218894   4.371   2.298   4.523 -0.4501  0.3287  0.3253
   27PEO   H28318895   4.369   2.189   4.512  1.6520  0.0598  2.1002
   27PEO   H28418896   4.282   2.344   4.478  0.1562  0.3237 -0.9193
   27PEO   O28518897   4.492   2.341   4.457 -0.8006  0.0891  0.0682
   27PEO   H28618898   4.439   2.270   4.258  1.8107 -1.7221 -1.5068
   27PEO   H28718899   4.534   2.161   4.362 -0.8083 -0.6542 -0.3545
   27PEO   C28818900   4.518   2.266   4.334  0.7526 -0.3725 -0.2597
   27PEO   C28918901   4.650   2.323   4.270  0.0652  0.1562 -0.1711
   27PEO   H28A18902   4.724   2.329   4.351 -0.6776  2.2574  0.4179
   27PEO   H28B18903   4.695   2.261   4.191  2.4664  1.1489  0.3284
   27PEO   O28C18904   4.624   2.461   4.230  0.1098  0.8618 -0.9781
   27PEO   H28D18905   4.805   2.518   4.307 -0.3572 -0.7900  0.8930
   27PEO   H28E18906   4.705   2.641   4.219  1.8625  0.4880 -0.4454
   27PEO   C28F18907   4.742   2.538   4.219  0.2230 -0.1305  0.6137
   27PEO   C29018908   4.825   2.514   4.096 -0.1304 -0.0470 -0.2833
   27PEO   H29118909   4.764   2.544   4.010  0.8073  2.0549 -0.2784
   27PEO   H29218910   4.912   2.580   4.105  0.8963 -1.6406  3.4498
   27PEO   O29318911   4.869   2.381   4.097  0.2314 -0.4343 -0.3291
   27PEO   H29418912   5.054   2.403   3.989 -0.3681 -0.1211  2.2662
   27PEO   H29518913   4.914   2.387   3.883 -0.3327 -3.0384 -0.8888
   27PEO   C29618914   4.955   2.356   3.980 -0.6264  0.6763  0.5612
   27PEO   C29718915   4.965   2.200   3.961  0.1645 -1.1347  0.1165
   27PEO   H29818916   5.037   2.176   3.882  1.4186 -0.1344  0.9093
   27PEO   H29918917   5.002   2.153   4.053 -1.6363 -1.4207  0.7519
   27PEO   O29A18918   4.837   2.150   3.914  0.5019  0.3978 -0.3742
   27PEO   H29B18919   4.727   1.986   4.013  2.0260 -1.8854  0.5653
   27PEO   H29C18920   4.890   1.971   4.028  1.5474  1.3108 -1.1288
   27PEO   C29D18921   4.817   2.012   3.956  0.6048  0.1617 -0.8739
   27PEO   C29E18922   4.843   1.917   3.829  0.1538  0.4494  0.5251
   27PEO   H29F18923   4.813   1.818   3.868  1.8449 -1.4652 -2.6081
   27PEO   H2A018924   4.780   1.944   3.744  1.7421  0.8563 -0.5690
   27PEO   O2A118925   4.978   1.907   3.798  0.1536 -0.7143  0.0277
   27PEO   H2A218926   4.921   1.832   3.610 -1.3114 -3.1120  0.7773
   27PEO   H2A318927   4.945   1.710   3.736  0.0307 -0.8399 -0.4418
   27PEO   C2A418928   4.983   1.805   3.697  0.6519 -0.8227  0.1883
   27PEO   C2A518929   5.130   1.793   3.639  0.0995 -0.3163 -1.2254
   27PEO   H2A618930   5.136   1.698   3.584  0.9754 -0.4287 -0.9505
   27PEO   H2A718931   5.150   1.880   3.575 -1.8916  0.2248 -1.2006
   27PEO   O2A818932   5.236   1.784   3.741  0.1162 -0.9323  0.1112
   27PEO   H2A918933   5.382   1.912   3.657 -0.2948 -0.2513 -2.0844
   27PEO   H2AA18934   5.394   1.735   3.611 -0.5519 -1.1243  0.1381
   27PEO   C2AB18935   5.367   1.808   3.689  0.2637  0.0798 -0.6607
   27PEO   C2AC18936   5.464   1.775   3.803  0.6415 -0.2183  0.4409
   27PEO   H2AD18937   5.417   1.698   3.866 -1.6903  2.2981  1.9894
   27PEO   H2AE18938   5.559   1.733   3.768  0.3572 -1.8612  1.5500
   27PEO   O2AF18939   5.480   1.894   3.895  0.0629 -0.1525  0.1008
   27PEO   H2B018940   5.273   1.936   3.949 -1.0173  1.3252 -0.2898
   27PEO   H2B118941   5.364   2.078   3.872  1.7261  1.6624  2.5026
   27PEO   C2B218942   5.369   1.987   3.934 -0.1597 -0.1005  0.2212
   27PEO   C2B318943   5.413   2.041   4.072  0.1639 -0.4021  0.4886
   27PEO   H2B418944   5.518   2.073   4.063  0.4272 -1.6091 -1.4178
   27PEO   H2B518945   5.349   2.124   4.105  1.8429  1.7797 -1.3804
   27PEO   O2B618946   5.399   1.938   4.171  0.0495 -0.3567  0.6009
   27PEO   H2B718947   5.499   2.060   4.307  3.5189 -1.2216  1.5646
   27PEO   H2B818948   5.596   1.965   4.211 -1.2217  3.3824 -3.0187
   27PEO   C2B918949   5.499   1.959   4.264  0.1518 -0.4991 -0.5212
   27PEO   C2BA18950   5.491   1.855   4.369 -0.3966  0.8217 -0.5611
   27PEO   H2BB18951   5.440   1.768   4.326  2.0260 -0.6751 -0.6029
   27PEO   H2BC18952   5.589   1.822   4.406 -1.5102 -1.7406  0.3843
   27PEO   O2BD18953   5.407   1.901   4.470  0.6212 -0.1456 -0.7359
   27PEO   H2BE18954   5.323   1.882   4.426  0.8666 -0.3710 -1.1104
   28PEO   H00118955   6.002   5.443   0.195  0.1531  0.4007  3.1582
   28PEO   H00218956   6.130   5.370   0.098  0.3186  0.5057  0.0570
   28PEO   H00318957   6.048   5.274   0.222 -1.2194 -0.3954 -2.3329
   28PEO   C00418958   6.088   5.374   0.200 -0.0743 -0.2812 -0.0690
   28PEO   C00518959   6.187   5.428   0.307 -0.5743  0.6374  0.4409
   28PEO   H00618960   6.281   5.375   0.287 -0.6761 -0.6205  2.8581
   28PEO   H00718961   6.206   5.536   0.299  1.5662  0.3019  0.2720
   28PEO   O00818962   6.148   5.399   0.446 -0.4262  0.2552  0.0331
   28PEO   H00918963   6.215   5.394   0.648 -0.7861 -0.1577  0.2614
   28PEO   H00A18964   6.350   5.406   0.521  0.1986 -1.7502 -0.1632
   28PEO   C00B18965   6.248   5.371   0.545  0.0113 -0.7005  0.6344
   28PEO   C00C18966   6.274   5.215   0.549  0.0736  0.1837  0.1677
   28PEO   H00D18967   6.330   5.195   0.641  0.6578  2.6055  0.3998
   28PEO   H00E18968   6.175   5.168   0.545  0.5664 -0.9895  1.3432
   28PEO   O00F18969   6.349   5.166   0.436  0.2424 -0.6656 -0.3046
   28PEO   H01018970   6.540   5.121   0.516 -0.1583 -0.9296 -0.3436
   28PEO   H01118971   6.519   5.288   0.459 -3.7609  1.7057  0.0705
   28PEO   C01218972   6.492   5.183   0.440  0.3829  0.3791  0.3522
   28PEO   C01318973   6.562   5.143   0.313 -0.0938  0.3009  0.3571
   28PEO   H01418974   6.671   5.159   0.321 -0.5268  3.5155  0.8917
   28PEO   H01518975   6.555   5.034   0.301  1.1011 -0.1643  3.0638
   28PEO   O01618976   6.523   5.223   0.197  0.5196 -0.5352 -0.3646
   28PEO   H01718977   6.634   5.106   0.073 -0.5748 -0.4919  1.7247
   28PEO   H01818978   6.694   5.266   0.096 -1.1178  0.5785  1.8910
   28PEO   C01918979   6.601   5.211   0.075 -0.1719 -0.2783 -0.4165
   28PEO   C01A18980   6.534   5.263  -0.051  0.0270  0.0725  0.2679
   28PEO   H01B18981   6.512   5.371  -0.048 -2.2529 -0.3528  2.0635
   28PEO   H01C18982   6.592   5.249  -0.144 -1.0654 -1.0560 -0.2890
   28PEO   O01D18983   6.409   5.201  -0.070 -0.4099 -0.8789  0.4758
   28PEO   H01E18984   6.423   5.178  -0.271  2.1742 -0.5351  2.1631
   28PEO   H01F18985   6.356   5.333  -0.224 -1.2818  0.0218  1.5651
   28PEO   C02018986   6.350   5.225  -0.203  0.0237 -0.4148 -0.0501
   28PEO   C02118987   6.208   5.164  -0.217 -0.0265 -0.5809 -0.4046
   28PEO   H02218988   6.183   5.152  -0.323  4.9323 -1.2398 -1.7388
   28PEO   H02318989   6.213   5.062  -0.176 -0.4431  0.6715  3.1000
   28PEO   O02418990   6.096   5.226  -0.144 -0.6888  0.6881  0.5722
   28PEO   H02518991   5.975   5.095  -0.248 -0.1305 -0.4872  0.5687
   28PEO   H02618992   5.962   5.261  -0.294 -0.6483 -1.0836 -1.1828
   28PEO   C02718993   5.971   5.197  -0.205  0.8570  0.0273 -0.4877
   28PEO   C02818994   5.838   5.232  -0.115  0.7104  0.3873  0.1594
   28PEO   H02918995   5.849   5.318  -0.048  0.2628 -0.4699  1.3692
   28PEO   H02A18996   5.747   5.233  -0.177 -1.1306  0.0020  2.7180
   28PEO   O02B18997   5.818   5.119  -0.029  0.4133 -0.1751  0.6100
   28PEO   H02C18998   5.645   5.037   0.077 -0.3798 -0.1445  0.5157
   28PEO   H02D18999   5.630   5.186  -0.011 -1.4485 -0.5288  0.5344
   28PEO   C02E19000   5.699   5.131   0.055 -0.5308 -0.1994 -0.1148
   28PEO   C02F19001   5.720   5.206   0.184 -0.2816  0.4327  0.2750
   28PEO   H03019002   5.776   5.294   0.151 -0.0693 -0.9985 -3.8984
   28PEO   H03119003   5.624   5.231   0.232  0.2191  3.7955 -0.2323
   28PEO   O03219004   5.801   5.122   0.268  0.2616 -0.1014  0.4704
   28PEO   H03319005   5.739   5.195   0.464 -0.2316  1.4052 -0.2298
   28PEO   H03419006   5.869   5.280   0.388  0.4478 -0.6813 -2.7884
   28PEO   C03519007   5.827   5.179   0.400 -0.1951 -0.1680  0.1514
   28PEO   C03619008   5.921   5.091   0.480  0.4109  0.6913  0.5347
   28PEO   H03719009   6.022   5.089   0.436  0.0126 -1.3927 -0.4451
   28PEO   H03819010   5.944   5.145   0.573  1.8836  1.7239 -0.4076
   28PEO   O03919011   5.864   4.959   0.511  0.4385 -0.0704 -0.1949
   28PEO   H03A19012   5.947   4.929   0.704 -0.9008  1.2992  0.0751
   28PEO   H03B19013   6.043   4.861   0.566 -0.8243  0.5627 -2.3894
   28PEO   C03C19014   5.942   4.879   0.607  0.1888 -0.2568  0.7812
   28PEO   C03D19015   5.881   4.739   0.638 -0.2530  0.4517  1.0649
   28PEO   H03E19016   5.937   4.697   0.723  1.2906 -0.9776 -0.5744
   28PEO   H03F19017   5.773   4.734   0.659 -0.6966  0.9668 -0.8669
   28PEO   O04019018   5.915   4.654   0.519  0.3213 -0.7666 -0.1910
   28PEO   H04119019   5.860   4.501   0.397  0.2824  0.6742 -0.9801
   28PEO   H04219020   5.730   4.613   0.437 -0.5209  0.5313  1.9329
   28PEO   C04319021   5.819   4.563   0.478  0.0615 -0.3498 -0.2846
   28PEO   C04419022   5.777   4.482   0.599  0.1366  0.3967 -0.1397
   28PEO   H04519023   5.740   4.544   0.682 -1.1298  0.9097 -1.0520
   28PEO   H04619024   5.706   4.403   0.570  2.4154 -2.3435  1.2377
   28PEO   O04719025   5.898   4.416   0.642  0.6481 -0.2752 -0.2256
   28PEO   H04819026   5.973   4.234   0.724  1.0643  0.4505 -0.5318
   28PEO   H04919027   5.799   4.243   0.709 -0.7824  0.7281  0.4495
   28PEO   C04A19028   5.888   4.302   0.736  0.2780 -0.5958 -0.0010
   28PEO   C04B19029   5.899   4.374   0.875 -0.1300 -1.1810  0.1892
   28PEO   H04C19030   5.864   4.476   0.855  1.7983 -0.9604 -2.6303
   28PEO   H04D19031   5.834   4.326   0.950  0.5215 -1.6231  0.4867
   28PEO   O04E19032   6.036   4.372   0.912 -0.0911  0.8676  0.4070
   28PEO   H04F19033   6.000   4.496   1.074  0.3692  0.7187  0.7051
   28PEO   H05019034   6.064   4.581   0.939  2.6246  1.3955  1.3621
   28PEO   C05119035   6.074   4.486   0.993 -0.5929  0.0465 -0.1122
   28PEO   C05219036   6.216   4.474   1.046 -0.0476 -0.6369 -0.0197
   28PEO   H05319037   6.300   4.482   0.975 -0.2589  2.7996 -0.0469
   28PEO   H05419038   6.226   4.566   1.106  0.9218  0.6943 -2.0915
   28PEO   O05519039   6.239   4.351   1.123 -0.0187 -0.5813 -0.0658
   28PEO   H05619040   6.162   4.228   1.277  0.3709 -0.6595 -0.1405
   28PEO   H05719041   6.043   4.332   1.193  0.0017  1.4076 -0.0486
   28PEO   C05819042   6.146   4.327   1.232  0.1239 -0.8588 -0.5069
   28PEO   C05919043   6.155   4.431   1.349 -0.2900 -0.2247  0.5982
   28PEO   H05A19044   6.126   4.390   1.446  0.9146  2.7729  2.3619
   28PEO   H05B19045   6.256   4.473   1.362 -0.2257 -0.6791  1.6413
   28PEO   O05C19046   6.075   4.541   1.305 -0.8395  0.0412 -0.3477
   28PEO   H05D19047   6.143   4.676   1.447  0.4387 -1.2217  0.9156
   28PEO   H05E19048   5.999   4.594   1.495 -1.9041  2.0055 -0.6565
   28PEO   C05F19049   6.050   4.635   1.407  0.2911  0.2161 -0.3061
   28PEO   C06019050   5.956   4.756   1.371 -0.1305  0.2455  0.3754
   28PEO   H06119051   5.866   4.727   1.315  0.8097  0.7286 -1.4796
   28PEO   H06219052   5.940   4.796   1.472  1.1593  0.8500  0.3634
   28PEO   O06319053   6.041   4.844   1.293 -0.5100  0.7826 -1.0428
   28PEO   H06419054   5.944   4.830   1.112 -1.1278 -0.8274  2.1266
   28PEO   H06519055   6.076   4.701   1.138  1.0728  0.2711  0.3810
   28PEO   C06619056   6.042   4.804   1.155 -0.0251 -0.0490  0.2275
   28PEO   C06719057   6.137   4.900   1.080  0.1903 -0.4210 -0.0566
   28PEO   H06819058   6.163   4.993   1.133  1.2776 -1.2209  0.8779
   28PEO   H06919059   6.233   4.848   1.064  1.0733  0.8638  0.8519
   28PEO   O06A19060   6.090   4.931   0.944 -0.6387  0.2187 -0.4024
   28PEO   H06B19061   6.146   4.989   0.765 -0.8917  3.0783 -0.6786
   28PEO   H06C19062   6.273   5.012   0.901 -0.4711 -3.1160  0.6068
   28PEO   C06D19063   6.168   5.019   0.869 -0.2300 -0.1296  0.2215
   28PEO   C06E19064   6.101   5.154   0.884 -0.2704  0.3084  0.5679
   28PEO   H06F19065   6.140   5.233   0.818 -2.1304 -1.6030 -3.1385
   28PEO   H07019066   5.995   5.144   0.856  0.6485  0.1115 -3.3982
   28PEO   O07119067   6.100   5.196   1.024  0.2504  0.0633  0.3095
   28PEO   H07219068   5.930   5.326   1.044  0.3966  0.6536  1.2082
   28PEO   H07319069   6.079   5.404   0.993 -0.4834 -0.3022  0.1032
   28PEO   C07419070   6.040   5.321   1.053  0.4499 -0.8304  0.0019
   28PEO   C07519071   6.055   5.348   1.201 -0.3967  0.5895 -0.3278
   28PEO   H07619072   5.993   5.435   1.225 -1.9146 -0.6622  0.4241
   28PEO   H07719073   6.015   5.259   1.252 -0.5009 -0.1013 -1.5714
   28PEO   O07819074   6.194   5.392   1.226  0.4556 -0.1616 -0.1970
   28PEO   H07919075   6.324   5.256   1.166  0.9301  1.3847 -1.0970
   28PEO   H07A19076   6.228   5.198   1.306  2.2991 -1.4313 -0.2402
   28PEO   C07B19077   6.277   5.286   1.261  0.3746 -0.5407 -0.7178
   28PEO   C07C19078   6.381   5.341   1.357  0.1161  0.2088  0.0011
   28PEO   H07D19079   6.327   5.393   1.437 -0.5977  0.3543 -0.5658
   28PEO   H07E19080   6.433   5.259   1.408  1.3591  1.8191  1.4404
   28PEO   O07F19081   6.470   5.418   1.290  0.2184  0.2446  0.2223
   28PEO   H08019082   6.605   5.444   1.460  0.3908  0.3717  0.0564
   28PEO   H08119083   6.511   5.585   1.409 -0.5592  0.2853 -1.1683
   28PEO   C08219084   6.563   5.495   1.372  0.7678  0.5435 -0.0259
   28PEO   C08319085   6.667   5.549   1.282 -0.0217 -1.0061  0.1089
   28PEO   H08419086   6.762   5.568   1.334  1.1069  1.3324 -2.4920
   28PEO   H08519087   6.690   5.482   1.198  5.3284  1.8246 -1.1480
   28PEO   O08619088   6.626   5.673   1.218 -0.0381 -0.0698 -0.5791
   28PEO   H08719089   6.808   5.684   1.131 -0.7654 -0.7500 -1.5664
   28PEO   H08819090   6.770   5.803   1.266 -0.6136  1.2608 -0.7069
   28PEO   C08919091   6.734   5.751   1.176 -0.0072 -1.1245  0.3260
   28PEO   C08A19092   6.687   5.846   1.059 -0.0648 -0.2317 -0.3112
   28PEO   H08B19093   6.773   5.861   0.992 -0.3357  1.4263 -0.3493
   28PEO   H08C19094   6.617   5.796   0.991 -0.0939 -0.4518 -0.1189
   28PEO   O08D19095   6.621   5.965   1.114 -0.6589 -0.1474 -0.1790
   28PEO   H08E19096   6.792   6.080   1.114  0.5985 -1.9724 -0.4258
   28PEO   H08F19097   6.750   5.998   1.269  0.2464  0.0604  0.3030
   28PEO   C09019098   6.710   6.049   1.180  0.3141 -0.0984  0.1819
   28PEO   C09119099   6.631   6.176   1.215  0.6890  0.1000  0.9055
   28PEO   H09219100   6.692   6.265   1.238  1.6746 -0.1847 -0.5080
   28PEO   H09319101   6.582   6.209   1.122  1.9035  2.2892  0.9748
   28PEO   O09419102   6.548   6.151   1.332  0.7396  0.1880  0.0579
   28PEO   H09519103   6.361   6.240   1.274 -1.5285 -2.1248  1.4096
   28PEO   H09619104   6.474   6.357   1.360 -0.9234 -0.2801 -0.0866
   28PEO   C09719105   6.443   6.252   1.346 -0.1737 -0.4773 -0.2912
   28PEO   C09819106   6.377   6.219   1.477  0.1885  0.1963  0.0537
   28PEO   H09919107   6.279   6.269   1.477 -0.0848 -0.3051  1.0781
   28PEO   H09A19108   6.376   6.110   1.482  0.0877  0.2510  2.8884
   28PEO   O09B19109   6.463   6.280   1.578  0.3216 -0.8226  0.4934
   28PEO   H09C19110   6.666   6.262   1.519  1.2482  0.8513  1.6079
   28PEO   H09D19111   6.590   6.116   1.589  0.3382 -0.2215 -2.3603
   28PEO   C09E19112   6.599   6.225   1.598  0.1456 -0.3546  0.1857
   28PEO   C09F19113   6.662   6.260   1.736  0.0853  0.1429  0.9080
   28PEO   H0A019114   6.767   6.232   1.721  0.2961  0.4132  1.8317
   28PEO   H0A119115   6.667   6.369   1.751  1.2595  0.2778 -0.2922
   28PEO   O0A219116   6.594   6.204   1.846  0.4704 -0.4918  1.3481
   28PEO   H0A319117   6.388   6.243   1.815  0.1413 -1.6475  0.4487
   28PEO   H0A419118   6.463   6.382   1.882 -2.2216  0.1137  1.0103
   28PEO   C0A519119   6.466   6.272   1.887  0.2256  0.0500 -0.2890
   28PEO   C0A619120   6.417   6.231   2.026  0.1307 -1.2948 -0.4796
   28PEO   H0A719121   6.314   6.267   2.034  0.5357  0.1551 -1.3858
   28PEO   H0A819122   6.401   6.122   2.033 -2.1449 -0.9006  2.3975
   28PEO   O0A919123   6.506   6.283   2.129 -0.0110 -0.1318  0.1946
   28PEO   H0AA19124   6.509   6.127   2.258  0.8126  0.7393 -1.1711
   28PEO   H0AB19125   6.385   6.249   2.294  0.0348 -0.6578  0.4058
   28PEO   C0AC19126   6.488   6.234   2.258  0.1074  0.6181  0.0535
   28PEO   C0AD19127   6.593   6.300   2.339  0.0341  0.4542 -0.5110
   28PEO   H0AE19128   6.590   6.407   2.313  4.5837  0.7484 -0.6700
   28PEO   H0AF19129   6.568   6.288   2.445 -0.0016  2.5672 -0.2246
   28PEO   O0B019130   6.726   6.246   2.306 -0.6574 -0.3750  0.5792
   28PEO   H0B119131   6.927   6.229   2.378 -0.9733 -1.0530 -0.3090
   28PEO   H0B219132   6.808   6.205   2.495 -1.0572 -1.9999 -1.0277
   28PEO   C0B319133   6.827   6.265   2.405 -0.2413  0.3870  0.6203
   28PEO   C0B419134   6.843   6.410   2.448  0.1154  0.1671 -0.7184
   28PEO   H0B519135   6.951   6.427   2.452 -0.1472  1.8575  0.0285
   28PEO   H0B619136   6.802   6.474   2.368  0.2870 -1.2160 -1.9688
   28PEO   O0B719137   6.768   6.446   2.571 -0.5756  0.1617  0.2504
   28PEO   H0B819138   6.712   6.644   2.499 -0.9555  1.9962  1.9694
   28PEO   H0B919139   6.844   6.636   2.621 -0.4287  0.4523 -0.9730
   28PEO   C0BA19140   6.752   6.588   2.585 -0.3509 -0.5593  0.1265
   28PEO   C0BB19141   6.643   6.615   2.690 -0.2966  0.1979 -0.3999
   28PEO   H0BC19142   6.684   6.572   2.783 -0.0049 -1.1902 -1.1462
   28PEO   H0BD19143   6.631   6.719   2.726  0.6995 -0.2825  1.4601
   28PEO   O0BE19144   6.519   6.548   2.660 -0.6454  1.0110  0.1873
   28PEO   H0BF19145   6.525   6.533   2.447 -1.8207 -2.3549 -0.2191
   28PEO   H0C019146   6.469   6.689   2.514 -2.5997  0.0476 -1.5715
   28PEO   C0C119147   6.466   6.580   2.527  0.5491  0.0318  0.2921
   28PEO   C0C219148   6.316   6.541   2.523 -0.8445  0.2873  0.2187
   28PEO   H0C319149   6.283   6.582   2.619 -0.2853 -1.2870  1.1215
   28PEO   H0C419150   6.270   6.597   2.440  1.7913  0.2137 -1.4358
   28PEO   O0C519151   6.283   6.397   2.531 -0.5162 -0.7749  0.0941
   28PEO   H0C619152   6.166   6.372   2.687  0.6258  1.2402  0.4791
   28PEO   H0C719153   6.347   6.375   2.720 -0.8549 -0.6223  1.1003
   28PEO   C0C819154   6.265   6.332   2.660 -0.2417 -1.2673  0.7036
   28PEO   C0C919155   6.259   6.180   2.653  0.1734 -0.3916  0.1575
   28PEO   H0CA19156   6.196   6.140   2.734 -0.8205  1.2120  0.2352
   28PEO   H0CB19157   6.197   6.151   2.567  1.6846 -0.5855 -0.9030
   28PEO   O0CC19158   6.388   6.119   2.643 -0.2688 -0.4932 -0.6259
   28PEO   H0CD19159   6.330   6.001   2.482  0.7227 -0.3638 -0.3514
   28PEO   H0CE19160   6.337   5.915   2.643  0.8934 -2.8628 -2.4929
   28PEO   C0CF19161   6.378   5.996   2.581 -0.4498  0.1716  0.2774
   28PEO   C0D019162   6.519   5.947   2.534  0.2137 -0.4519  0.5421
   28PEO   H0D119163   6.528   5.951   2.425 -0.1245 -0.6785  0.5023
   28PEO   H0D219164   6.604   6.006   2.571  0.8614  0.1839 -1.7932
   28PEO   O0D319165   6.539   5.809   2.582  0.6281 -0.1151  0.2111
   28PEO   H0D419166   6.502   5.707   2.760 -2.4954  2.2262  0.4493
   28PEO   H0D519167   6.519   5.882   2.777  2.4398  3.1652 -1.8822
   28PEO   C0D619168   6.558   5.794   2.724  0.2088  0.5968  0.4139
   28PEO   C0D719169   6.703   5.788   2.762 -0.9868  0.3448 -0.2194
   28PEO   H0D819170   6.709   5.742   2.862 -0.2940 -0.8556 -0.7885
   28PEO   H0D919171   6.754   5.725   2.688  0.4214  0.8921  0.2323
   28PEO   O0DA19172   6.760   5.917   2.782  0.0768  0.2521 -0.6351
   28PEO   H0DB19173   6.939   6.030   2.753  2.8566 -0.5686 -1.2183
   28PEO   H0DC19174   6.935   5.865   2.685 -0.6285 -3.5315  2.0086
   28PEO   C0DD19175   6.905   5.927   2.770  0.1778  0.3963 -0.3296
   28PEO   C0DE19176   6.972   5.876   2.908  0.2610 -0.1430  0.6241
   28PEO   H0DF19177   6.924   5.779   2.929  1.3179 -0.6133  0.9345
   28PEO   H0E019178   7.075   5.849   2.883  0.4712  3.0403 -2.8556
   28PEO   O0E119179   6.952   5.972   3.005 -0.2487 -0.2349  0.4372
   28PEO   H0E219180   7.055   5.875   3.156  0.0630  1.6885  4.3198
   28PEO   H0E319181   6.873   5.876   3.160 -2.4996  3.6251  0.2034
   28PEO   C0E419182   6.964   5.934   3.140 -0.2540  0.3130  0.0076
   28PEO   C0E519183   6.951   6.056   3.222  0.9842 -0.4155 -0.2224
   28PEO   H0E619184   6.888   6.132   3.173  0.7123  0.4623  1.3900
   28PEO   H0E719185   6.898   6.030   3.315 -1.3742  1.7571 -0.8362
   28PEO   O0E819186   7.074   6.115   3.253 -0.5141  0.6012 -0.2235
   28PEO   H0E919187   7.189   6.223   3.393  0.0435  0.6246  0.0768
   28PEO   H0EA19188   7.062   6.121   3.460 -2.0520  1.2244  0.6826
   28PEO   C0EB19189   7.088   6.185   3.375  0.4677 -0.5316 -0.0038
   28PEO   C0EC19190   6.982   6.293   3.392  0.2137 -0.1213 -0.3777
   28PEO   H0ED19191   7.002   6.374   3.462 -0.1637 -0.3472 -0.0054
   28PEO   H0EE19192   6.981   6.347   3.296  1.6913  2.2501  0.8771
   28PEO   O0EF19193   6.861   6.234   3.425 -0.1186  0.2330  0.7163
   28PEO   H0F019194   6.759   6.398   3.371 -1.9414 -2.7628 -2.2132
   28PEO   H0F119195   6.789   6.383   3.548  3.6275  0.7879 -1.6975
   28PEO   C0F219196   6.760   6.328   3.456 -0.0278 -0.3156 -0.0639
   28PEO   C0F319197   6.627   6.247   3.464 -0.4896 -0.8614 -0.6159
   28PEO   H0F419198   6.544   6.317   3.449 -0.4448  0.2104  3.1473
   28PEO   H0F519199   6.630   6.171   3.384 -0.1996 -2.4609  0.8363
   28PEO   O0F619200   6.617   6.188   3.588 -0.6922 -0.1159 -0.3572
   28PEO   H0F719201   6.426   6.127   3.554  0.0267 -1.2623 -0.4491
   28PEO   H0F819202   6.490   6.064   3.708  3.4421 -3.5184  1.4569
   28PEO   C0F919203   6.517   6.090   3.604 -0.2479  0.1433  1.1754
   28PEO   C0FA19204   6.548   5.958   3.531  0.4252  0.6008 -0.6611
   28PEO   H0FB19205   6.657   5.946   3.521  0.5280  1.7264 -1.0441
   28PEO   H0FC19206   6.506   5.883   3.600  0.6292  2.8604  2.1313
   28PEO   O0FD19207   6.480   5.950   3.407 -0.3634 -0.6520 -0.0210
   28PEO   H0FE19208   6.439   5.746   3.402 -1.7614  1.5046  1.2207
   28PEO   H0FF19209   6.597   5.804   3.338 -0.0305 -0.4247  1.8383
   28PEO   C10019210   6.489   5.825   3.344 -0.1133 -0.2427  0.1306
   28PEO   C10119211   6.426   5.827   3.210  0.6015  0.1285 -0.1112
   28PEO   H10219212   6.452   5.730   3.165  3.1015  0.6892 -0.0672
   28PEO   H10319213   6.317   5.833   3.223  0.7648 -0.4286  1.7604
   28PEO   O10419214   6.463   5.943   3.131 -0.0648  0.4367  0.3778
   28PEO   H10519215   6.655   5.908   3.077 -1.4452 -1.6739  2.1106
   28PEO   H10619216   6.632   6.026   3.212  1.1558 -5.8366  2.2650
   28PEO   C10719217   6.594   5.991   3.115 -0.3969  0.0165  0.3498
   28PEO   C10819218   6.594   6.110   3.013 -0.1909 -0.8660  0.4956
   28PEO   H10919219   6.694   6.135   2.975 -1.5767  1.2011 -2.0493
   28PEO   H10A19220   6.546   6.099   2.915 -0.5883  1.7322  0.3489
   28PEO   O10B19221   6.540   6.225   3.072 -0.2599  0.4072  0.2991
   28PEO   H10C19222   6.402   6.296   2.931  0.7911 -0.5229 -0.9613
   28PEO   H10D19223   6.571   6.340   2.913 -1.2506 -2.3902 -0.4221
   28PEO   C10E19224   6.490   6.329   2.987 -0.5150  0.0668  0.8309
   28PEO   C10F19225   6.464   6.455   3.067 -0.5998 -0.2748  0.1790
   28PEO   H11019226   6.406   6.518   2.998  0.4412 -1.0663 -1.4836
   28PEO   H11119227   6.420   6.439   3.167  2.4149  0.4781  1.7587
   28PEO   O11219228   6.597   6.509   3.088 -0.3494  0.0736 -0.6321
   28PEO   H11319229   6.550   6.637   3.231 -1.0223  0.9047 -0.0419
   28PEO   H11419230   6.538   6.698   3.052  0.4136  1.2068 -0.1304
   28PEO   C11519231   6.592   6.642   3.130 -0.5198  0.6646  0.1507
   28PEO   C11619232   6.738   6.703   3.134 -0.2060 -1.1788  0.3141
   28PEO   H11719233   6.800   6.673   3.048 -0.6345 -1.0817 -0.0333
   28PEO   H11819234   6.725   6.811   3.118  0.0571 -1.5043 -2.6265
   28PEO   O11919235   6.789   6.668   3.259 -0.2320  0.3086 -0.3997
   28PEO   H11A19236   6.911   6.842   3.273 -2.9890  1.2039  2.2236
   28PEO   H11B19237   6.997   6.676   3.248 -0.3170 -0.9111  1.6857
   28PEO   C11C19238   6.914   6.734   3.292 -0.3359  0.7106 -0.3030
   28PEO   C11D19239   6.946   6.702   3.443 -0.0234 -0.0814  0.4874
   28PEO   H11E19240   6.942   6.592   3.449 -0.9110 -0.0954 -0.2206
   28PEO   H11F19241   7.045   6.744   3.466  0.7017 -1.4242 -0.0968
   28PEO   O12019242   6.852   6.762   3.530 -0.1367 -0.4915 -0.7028
   28PEO   H12119243   6.915   6.755   3.742 -0.9637 -3.5711  2.9005
   28PEO   H12219244   6.849   6.612   3.663 -2.2866 -0.1313 -3.6494
   28PEO   C12319245   6.842   6.722   3.666 -0.7649  0.0397  0.8899
   28PEO   C12419246   6.696   6.764   3.706 -0.3038  0.6821  0.3692
   28PEO   H12519247   6.695   6.797   3.811  1.9790 -1.4552  1.1411
   28PEO   H12619248   6.673   6.846   3.636 -1.6484 -2.3762 -3.1127
   28PEO   O12719249   6.601   6.658   3.688 -0.2064 -0.5698  0.3960
   28PEO   H12819250   6.653   6.596   3.506  0.3248  4.2195 -2.9503
   28PEO   H12919251   6.550   6.734   3.501 -1.3351 -0.6601 -0.8921
   28PEO   C12A19252   6.562   6.638   3.552 -0.1851  0.1218  0.3881
   28PEO   C12B19253   6.434   6.550   3.552 -0.0567 -0.4492  0.0712
   28PEO   H12C19254   6.445   6.493   3.458 -1.0251 -1.0962  0.3321
   28PEO   H12D19255   6.443   6.487   3.642  0.3051 -2.9180 -1.5778
   28PEO   O12E19256   6.319   6.632   3.557  0.2351 -0.3012 -0.3337
   28PEO   H12F19257   6.269   6.649   3.364  0.9317  0.4792  1.2441
   28PEO   H13019258   6.144   6.680   3.489  2.3961  1.4048  2.9241
   28PEO   C13119259   6.223   6.610   3.456 -0.2544 -0.6135  0.2349
   28PEO   C13219260   6.180   6.459   3.433 -0.3258  0.0542 -0.4357
   28PEO   H13319261   6.152   6.421   3.533  0.2738  0.2207 -0.1949
   28PEO   H13419262   6.088   6.456   3.374 -0.3277 -0.0411 -0.4278
   28PEO   O13519263   6.280   6.370   3.373  0.0907 -0.2064  0.9786
   28PEO   H13619264   6.146   6.220   3.424 -1.2093 -2.0537 -1.7352
   28PEO   H13719265   6.323   6.179   3.400  0.9935  0.3261 -0.0728
   28PEO   C13819266   6.236   6.236   3.363  0.3853  0.0827  0.9597
   28PEO   C13919267   6.199   6.198   3.215  0.0738 -0.7357  0.3115
   28PEO   H13A19268   6.291   6.178   3.160 -0.0848  2.5904 -1.4190
   28PEO   H13B19269   6.141   6.104   3.215 -0.4914 -0.4504 -2.0368
   28PEO   O13C19270   6.116   6.294   3.145  0.4274  0.1143 -1.0225
   28PEO   H13D19271   6.052   6.160   2.996  0.5267 -0.5457 -1.7033
   28PEO   H13E19272   6.199   6.250   2.970 -0.3681 -2.9137 -0.4222
   28PEO   C13F19273   6.098   6.258   3.014 -0.0869 -0.5125 -0.0962
   28PEO   C14019274   6.014   6.377   2.947 -0.3033 -0.6444  0.0177
   28PEO   H14119275   5.990   6.344   2.845  0.4791  2.1400 -1.1631
   28PEO   H14219276   5.912   6.392   2.986 -1.3052 -0.1327 -2.6276
   28PEO   O14319277   6.096   6.502   2.921 -0.8322  0.0319  0.3548
   28PEO   H14419278   6.198   6.649   3.032 -0.2139  1.5459 -0.1843
   28PEO   H14519279   6.100   6.535   3.122 -1.0497  0.2379 -0.1650
   28PEO   C14619280   6.102   6.595   3.030  0.3976  0.4489 -0.0187
   28PEO   C14719281   5.985   6.693   3.027  0.9793  0.1907 -0.0742
   28PEO   H14819282   6.008   6.781   3.089  0.9284 -0.8959  1.5389
   28PEO   H14919283   5.953   6.713   2.923  1.3181 -0.5973 -0.3316
   28PEO   O14A19284   5.876   6.635   3.098 -0.0280 -0.5157  0.1727
   28PEO   H14B19285   5.760   6.795   3.052  0.7741  0.5378  1.2439
   28PEO   H14C19286   5.661   6.679   3.132 -0.8594  1.2748 -0.6712
   28PEO   C14D19287   5.744   6.686   3.060  0.0669  0.5606  0.2896
   28PEO   C14E19288   5.693   6.639   2.920 -0.0557  0.1300 -0.3395
   28PEO   H14F19289   5.604   6.690   2.881  1.0092  0.7488 -2.0699
   28PEO   H15019290   5.773   6.662   2.848  0.5080 -0.4402  0.0931
   28PEO   O15119291   5.674   6.499   2.930  0.4874  0.5937  1.2053
   28PEO   H15219292   5.669   6.327   2.794 -0.1462 -0.9492 -0.6094
   28PEO   H15319293   5.766   6.463   2.745  1.1141 -3.0501 -0.0664
   28PEO   C15419294   5.673   6.437   2.797  0.3401 -0.9735 -0.3121
   28PEO   C15519295   5.571   6.491   2.698  0.5903  0.3636  0.6791
   28PEO   H15619296   5.569   6.600   2.688 -1.8464  0.3327  0.0555
   28PEO   H15719297   5.581   6.433   2.604  1.3809  1.6522 -0.0602
   28PEO   O15819298   5.435   6.465   2.745  0.4196  0.3402 -0.5601
   28PEO   H15919299   5.238   6.516   2.703  0.0195  0.0993 -1.4699
   28PEO   H15A19300   5.364   6.580   2.589  0.4751  3.0651  0.4520
   28PEO   C15B19301   5.340   6.557   2.694  0.2920 -0.2548 -0.1775
   28PEO   C15C19302   5.332   6.695   2.764  0.3360  0.0009  0.5679
   28PEO   H15D19303   5.234   6.738   2.740  0.9155  1.6670  1.0043
   28PEO   H15E19304   5.348   6.680   2.872  1.7048  1.9730  0.7015
   28PEO   O15F19305   5.425   6.779   2.705 -0.0469 -0.2764  0.0860
   28PEO   H16019306   5.467   6.905   2.867 -0.6413  0.3489  0.1426
   28PEO   H16119307   5.334   6.970   2.758 -0.4054  0.3354 -0.2870
   28PEO   C16219308   5.429   6.914   2.764 -0.2685  0.5964  0.0201
   28PEO   C16319309   5.535   6.991   2.680  0.1107 -0.3146 -0.8338
   28PEO   H16419310   5.549   6.957   2.576  2.3574  1.1776 -1.0817
   28PEO   H16519311   5.492   7.091   2.689  0.2909 -0.4407  2.4021
   28PEO   O16619312   5.671   6.986   2.738 -0.3279  0.0116 -0.4565
   28PEO   H16719313   5.764   7.160   2.670 -0.4127 -0.0496  0.9057
   28PEO   H16819314   5.804   7.016   2.575  1.4104 -0.4471  0.3417
   28PEO   C16919315   5.781   7.051   2.676 -0.0934 -0.0681 -0.1137
   28PEO   C16A19316   5.918   7.022   2.749  0.0495  0.0047  0.8971
   28PEO   H16B19317   5.940   6.915   2.762  1.2260  0.4124  2.6426
   28PEO   H16C19318   6.002   7.064   2.692 -0.8439  1.1605  0.4117
   28PEO   O16D19319   5.923   7.088   2.879 -0.1462  0.2145 -0.2288
   28PEO   H16E19320   6.062   7.233   2.831 -0.2519 -0.7578 -0.1880
   28PEO   H16F19321   6.138   7.090   2.885  1.3569  2.8930 -1.5784
   28PEO   C17019322   6.049   7.152   2.904 -0.7450 -0.3332  0.2024
   28PEO   C17119323   6.052   7.204   3.052  0.0964 -1.0367 -0.2706
   28PEO   H17219324   6.005   7.130   3.118 -1.7127  0.1872 -0.1202
   28PEO   H17319325   6.156   7.229   3.076 -0.0233 -0.5689 -0.2225
   28PEO   O17419326   5.975   7.328   3.066  0.2181 -0.4435 -0.1093
   28PEO   H17519327   6.112   7.446   3.188  0.1092 -0.1489 -0.4488
   28PEO   H17619328   5.998   7.333   3.272  0.4675  0.0740  0.2187
   28PEO   C17719329   6.011   7.403   3.188  0.5230 -1.1461 -0.8206
   28PEO   C17819330   5.917   7.518   3.215 -0.2379  0.6910 -0.0416
   28PEO   H17919331   5.811   7.490   3.222 -0.6437  2.1731  0.1482
   28PEO   H17A19332   5.941   7.581   3.303  2.9561 -0.2586 -0.0885
   28PEO   O17B19333   5.939   7.600   3.105  0.1915  0.1067 -0.5682
   28PEO   H17C19334   5.882   7.797   3.038  3.1527 -0.1501  2.7267
   28PEO   H17D19335   5.809   7.737   3.190 -3.6782 -0.2020 -0.3995
   28PEO   C17E19336   5.838   7.709   3.088 -0.0900 -0.0226  0.4140
   28PEO   C17F19337   5.715   7.650   3.013  0.1555 -0.9084 -0.9978
   28PEO   H18019338   5.734   7.644   2.905 -0.0173 -0.1740 -1.0759
   28PEO   H18119339   5.698   7.547   3.046 -0.7542 -1.1363 -2.1165
   28PEO   O18219340   5.613   7.749   3.055 -0.4574  0.0599 -0.2712
   28PEO   H18319341   5.492   7.621   2.941 -0.1398  0.3318 -0.4144
   28PEO   H18419342   5.416   7.774   2.983 -1.1008 -0.2307  0.4154
   28PEO   C18519343   5.485   7.698   3.020  0.8786  0.8722 -0.8253
   28PEO   C18619344   5.425   7.635   3.146  0.2581  0.5750  0.2153
   28PEO   H18719345   5.446   7.709   3.225  2.0951  0.5893 -0.2363
   28PEO   H18819346   5.320   7.616   3.122  0.6063 -0.1156 -0.8488
   28PEO   O18919347   5.485   7.503   3.167 -0.2336  0.2591 -0.0541
   28PEO   H18A19348   5.329   7.362   3.188 -1.8010  2.7300 -0.3514
   28PEO   H18B19349   5.355   7.472   3.320  4.0847  2.3872  1.2128
   28PEO   C18C19350   5.408   7.411   3.246 -0.1093 -0.4719  0.2444
   28PEO   C18D19351   5.505   7.324   3.320 -0.2884 -0.0003  0.7037
   28PEO   H18E19352   5.605   7.371   3.316 -0.3170  0.0814  0.9435
   28PEO   H18F19353   5.481   7.313   3.426  1.2929  0.6204  1.1617
   28PEO   O19019354   5.502   7.198   3.239 -0.0590  0.8252 -0.0566
   28PEO   H19119355   5.585   7.061   3.370  0.8960  1.6633  0.8655
   28PEO   H19219356   5.700   7.138   3.258  1.0550 -2.1337  1.7632
   28PEO   C19319357   5.599   7.095   3.266  0.0189 -0.1875  0.0957
   28PEO   C19419358   5.579   6.987   3.166 -0.9610  0.2295  0.0914
   28PEO   H19519359   5.600   7.029   3.066  0.0588  1.3331  0.7335
   28PEO   H19619360   5.651   6.912   3.202 -1.4321  1.2898  3.6274
   28PEO   O19719361   5.446   6.939   3.178 -0.8156  0.0168 -0.5233
   28PEO   H19819362   5.438   6.739   3.239  0.4163 -0.9080  0.1843
   28PEO   H19919363   5.473   6.772   3.062 -1.3859 -1.0328 -1.3184
   28PEO   C19A19364   5.416   6.802   3.151  0.2641 -1.3459 -0.0940
   28PEO   C19B19365   5.259   6.793   3.135 -0.2419  0.5067  1.0890
   28PEO   H19C19366   5.224   6.689   3.128  2.7582 -0.4817 -2.1203
   28PEO   H19D19367   5.201   6.841   3.215 -1.5962  0.7059  0.0161
   28PEO   O19E19368   5.214   6.865   3.024 -0.4128  0.5950  0.1176
   28PEO   H19F19369   5.011   6.841   3.082 -0.2748 -1.3930  0.2695
   28PEO   H1A019370   5.051   6.748   2.937 -1.0392  1.5512 -0.8448
   28PEO   C1A119371   5.073   6.842   2.991  0.1583  0.5273  0.5310
   28PEO   C1A219372   5.023   6.957   2.898  0.0998  0.1015  0.6717
   28PEO   H1A319373   4.914   6.965   2.894  0.0040 -1.0985  0.2417
   28PEO   H1A419374   5.056   7.050   2.946  2.1550  0.8404 -1.9186
   28PEO   O1A519375   5.083   6.955   2.767  0.3950  0.6621  0.2748
   28PEO   H1A619376   5.064   7.146   2.669 -0.7569  0.8327 -1.4199
   28PEO   H1A719377   4.933   7.030   2.628  0.0708  0.6286 -0.0861
   28PEO   C1A819378   5.039   7.040   2.656  0.1557  0.4685 -0.3479
   28PEO   C1A919379   5.125   7.013   2.532 -0.5289 -0.6063  0.7826
   28PEO   H1AA19380   5.097   7.069   2.441 -2.4692  0.6342  2.0835
   28PEO   H1AB19381   5.229   7.045   2.553  0.8527 -2.3711 -2.5431
   28PEO   O1AC19382   5.115   6.876   2.495 -0.0406  0.2448 -0.4811
   28PEO   H1AD19383   5.284   6.764   2.468 -0.2949 -2.0266 -0.1367
   28PEO   H1AE19384   5.264   6.908   2.357  2.8113 -1.3314  0.2557
   28PEO   C1AF19385   5.214   6.825   2.409  0.8846 -0.2451  0.2256
   28PEO   C1B019386   5.151   6.741   2.298  0.5432  0.8882  0.6639
   28PEO   H1B119387   5.224   6.662   2.276 -1.1275 -0.7777  0.8280
   28PEO   H1B219388   5.067   6.680   2.335  0.8846 -0.7551 -1.1322
   28PEO   O1B319389   5.102   6.823   2.182  0.7264 -0.0492 -0.3084
   28PEO   H1B419390   5.213   6.727   2.035 -1.0230  0.5999  0.9029
   28PEO   H1B519391   5.297   6.848   2.136 -0.6661 -2.0381  2.6624
   28PEO   C1B619392   5.205   6.829   2.078  0.0995  1.0515  0.0957
   28PEO   C1B719393   5.186   6.934   1.964 -0.1607 -0.9918  0.0689
   28PEO   H1B819394   5.141   7.026   2.004 -2.2216 -0.9207 -2.1538
   28PEO   H1B919395   5.282   6.952   1.914  1.0402 -2.4694  1.7325
   28PEO   O1BA19396   5.091   6.875   1.877  0.1531  0.1690 -0.0929
   28PEO   H1BB19397   5.179   6.967   1.716 -0.1762  0.5502 -1.5036
   28PEO   H1BC19398   5.029   7.048   1.773 -0.7206 -0.4189 -0.7581
   28PEO   C1BD19399   5.077   6.951   1.755  0.4233  0.0168 -0.1170
   28PEO   C1BE19400   5.006   6.883   1.642  0.3581  0.0557  0.3149
   28PEO   H1BF19401   4.907   6.838   1.659  1.2915 -3.4803 -2.3427
   28PEO   H1C019402   4.976   6.968   1.580 -0.0893 -0.1966  0.1805
   28PEO   O1C119403   5.097   6.776   1.579  0.2716 -0.5840  0.2188
   28PEO   H1C219404   5.051   6.829   1.377 -1.4768 -0.0590 -0.3507
   28PEO   H1C319405   4.926   6.738   1.463 -0.2482  1.5814 -0.1609
   28PEO   C1C419406   5.035   6.749   1.450 -0.0376 -0.0075  0.0573
   28PEO   C1C519407   5.093   6.623   1.402 -0.6259  0.6054 -0.7169
   28PEO   H1C619408   5.069   6.551   1.482 -1.2797  0.3547 -1.1265
   28PEO   H1C719409   5.053   6.575   1.312  2.0367 -3.1445 -0.1569
   28PEO   O1C819410   5.240   6.639   1.375 -0.2214  0.1811 -0.1422
   28PEO   H1C919411   5.252   6.423   1.416  0.8903 -0.2977  1.3477
   28PEO   H1CA19412   5.403   6.503   1.390 -0.2086  0.8601  0.4955
   28PEO   C1CB19413   5.298   6.506   1.359 -0.1835 -0.4561  0.2327
   28PEO   C1CC19414   5.298   6.463   1.205  0.0665  0.7230  0.1160
   28PEO   H1CD19415   5.296   6.555   1.146 -1.1105  1.0046  0.5769
   28PEO   H1CE19416   5.382   6.394   1.186  1.1430  2.0852 -0.2443
   28PEO   O1CF19417   5.176   6.386   1.168  0.3424  0.0487 -0.2283
   28PEO   H1D019418   5.238   6.289   1.003  1.2393 -1.3875  1.7564
   28PEO   H1D119419   5.186   6.456   0.973  0.9510 -0.2174  1.8281
   28PEO   C1D219420   5.163   6.365   1.030  0.3576 -1.4606 -0.2787
   28PEO   C1D319421   5.013   6.320   0.994 -0.7632  1.2633 -0.7637
   28PEO   H1D419422   4.936   6.396   0.977 -0.9428  1.4415  0.7798
   28PEO   H1D519423   5.024   6.262   0.901  1.6047 -0.5960  0.5554
   28PEO   O1D619424   4.963   6.230   1.095 -0.0847  0.2130 -0.3282
   28PEO   H1D719425   4.900   6.067   0.959 -0.0928 -1.4007  0.9399
   28PEO   H1D819426   4.796   6.193   0.977  1.9664 -1.7022 -3.7946
   28PEO   C1D919427   4.867   6.136   1.039 -0.1262 -0.4732  0.1457
   28PEO   C1DA19428   4.804   6.059   1.152  0.3377 -0.3226  0.7285
   28PEO   H1DB19429   4.733   5.988   1.106  1.4858  0.3648 -2.3696
   28PEO   H1DC19430   4.885   5.999   1.197 -0.1428 -1.5070  0.0676
   28PEO   O1DD19431   4.742   6.145   1.238  0.3699 -0.4225 -0.8962
   28PEO   H1DE19432   4.833   6.071   1.416  1.1588  0.1902 -1.9303
   28PEO   H1DF19433   4.664   6.022   1.377 -0.9601  0.4437  0.6562
   28PEO   C1E019434   4.736   6.105   1.377  0.0016 -0.3732  0.2643
   28PEO   C1E119435   4.695   6.227   1.460  0.1629 -0.3713 -0.5130
   28PEO   H1E219436   4.695   6.202   1.567 -1.2136  1.4077 -0.0368
   28PEO   H1E319437   4.772   6.304   1.445 -0.4701  0.1280 -1.3029
   28PEO   O1E419438   4.566   6.278   1.418 -0.2057  0.5337 -0.4711
   28PEO   H1E519439   4.479   6.461   1.367  0.1728  0.7512 -0.3301
   28PEO   H1E619440   4.639   6.475   1.442 -0.3486  2.5728  1.5040
   28PEO   C1E719441   4.545   6.419   1.444  0.8071  0.3021 -1.1007
   28PEO   C1E819442   4.473   6.422   1.576 -0.4091  0.3743 -0.4662
   28PEO   H1E919443   4.439   6.525   1.598  0.5604  0.0066  3.3718
   28PEO   H1EA19444   4.389   6.351   1.576 -0.1869  0.1127  0.0597
   28PEO   O1EB19445   4.573   6.390   1.672  0.0194 -0.1526 -0.2189
   28PEO   H1EC19446   4.581   6.312   1.864  0.5018 -0.7834  0.3882
   28PEO   H1ED19447   4.422   6.339   1.805  0.8389 -2.4078  1.2106
   28PEO   C1EE19448   4.522   6.385   1.807  0.2220 -0.9647  0.4468
   28PEO   C1EF19449   4.520   6.530   1.862  0.6359 -0.3244 -0.4375
   28PEO   H1F019450   4.527   6.527   1.972 -1.2259  0.7064 -0.2484
   28PEO   H1F119451   4.610   6.573   1.817  1.7322 -1.8843  0.1992
   28PEO   O1F219452   4.407   6.596   1.814 -0.0841 -0.8561 -0.1447
   28PEO   H1F319453   4.278   6.457   1.908 -1.2618  0.7410  2.5726
   28PEO   H1F419454   4.219   6.557   1.771  0.6057 -2.3441 -0.3536
   28PEO   C1F519455   4.281   6.557   1.863 -0.8815 -0.0648  0.7274
   28PEO   C1F619456   4.223   6.647   1.969 -0.7043  0.1634 -0.2368
   28PEO   H1F719457   4.200   6.745   1.924  0.4073 -0.2159 -1.6970
   28PEO   H1F819458   4.132   6.602   2.011  0.3655 -1.4553  0.4299
   28PEO   O1F919459   4.308   6.656   2.084 -0.6396  0.3467 -0.8648
   28PEO   H1FA19460   4.175   6.622   2.234 -1.5165  2.2924  0.3341
   28PEO   H1FB19461   4.203   6.800   2.206 -2.0861  0.1461  1.5368
   28PEO   C1FC19462   4.248   6.699   2.204 -0.3655  0.8622 -0.6860
   28PEO   C1FD19463   4.358   6.708   2.311 -0.2479  0.6670  0.5540
   28PEO   H1FE19464   4.348   6.638   2.396 -1.6219 -0.3673 -0.4248
   28PEO   H1FF19465   4.452   6.691   2.256  0.4273  0.7455  1.6376
   28PEO   O20019466   4.370   6.846   2.351 -0.7923  0.5420 -0.1797
   28PEO   H20119467   4.464   6.981   2.482  3.6998 -0.6625 -3.8791
   28PEO   H20219468   4.526   6.817   2.489  0.0294 -0.1175 -0.7538
   28PEO   C20319469   4.433   6.875   2.482  0.1478  0.1357 -0.2244
   28PEO   C20419470   4.325   6.864   2.593  0.4834  0.0626  0.0930
   28PEO   H20519471   4.369   6.872   2.693  0.8718  3.5016 -0.2510
   28PEO   H20619472   4.259   6.948   2.570 -1.3953 -0.8141  1.9491
   28PEO   O20719473   4.241   6.743   2.591 -0.2188  0.2053 -0.7230
   28PEO   H20819474   4.070   6.824   2.683  0.6874  2.0970  0.4562
   28PEO   H20919475   4.202   6.774   2.787 -1.1548 -0.9655  1.1490
   28PEO   C20A19476   4.145   6.744   2.698 -0.7146  0.6944  0.2878
   28PEO   C20B19477   4.074   6.608   2.719  0.3573  0.0547  0.3254
   28PEO   H20C19478   4.149   6.530   2.737 -1.1075 -1.2214  1.2461
   28PEO   H20D19479   4.018   6.614   2.813  0.1564 -1.1323  0.3020
   28PEO   O20E19480   3.990   6.577   2.606 -0.6115 -0.6532  0.2980
   28PEO   H20F19481   4.102   6.421   2.538 -2.3671 -0.4388  0.8425
   28PEO   H21019482   4.143   6.567   2.443 -0.7435 -1.5774 -2.8380
   28PEO   C21119483   4.061   6.513   2.492 -0.2129  0.4818  0.6587
   28PEO   C21219484   3.960   6.484   2.383 -0.0514 -0.7811 -0.2019
   28PEO   H21319485   3.863   6.473   2.432 -0.0500 -2.5854 -0.5575
   28PEO   H21419486   3.946   6.575   2.322 -2.1851 -0.2465  0.9974
   28PEO   O21519487   3.979   6.358   2.310 -0.4174  0.4704 -0.2519
   28PEO   H21619488   3.894   6.437   2.133  1.3869 -0.3865  0.2068
   28PEO   H21719489   3.784   6.342   2.237 -0.1414  0.0680 -0.1561
   28PEO   C21819490   3.887   6.350   2.201  0.1938  0.1370  0.7863
   28PEO   C21919491   3.916   6.225   2.121  0.0191 -0.5461  1.0689
   28PEO   H21A19492   3.863   6.236   2.025  0.5684  0.2294  0.8367
   28PEO   H21B19493   4.025   6.215   2.111  0.3122  1.2574  2.0972
   28PEO   O21C19494   3.874   6.110   2.195 -0.0026 -0.4207  0.0376
   28PEO   H21D19495   3.971   5.977   2.062 -0.5684  0.4324 -1.5268
   28PEO   H21E19496   3.800   6.010   2.021  2.3048 -1.2352 -2.2489
   28PEO   C21F19497   3.872   5.997   2.104 -0.0408 -0.1714  0.1118
   28PEO   C22019498   3.831   5.877   2.198  0.4126  0.7121 -0.3709
   28PEO   H22119499   3.740   5.897   2.256 -1.2170 -0.3443 -2.3970
   28PEO   H22219500   3.800   5.789   2.139  0.2785 -0.3997  1.2809
   28PEO   O22319501   3.938   5.850   2.286  0.1122 -0.1361  0.0252
   28PEO   H22419502   4.009   5.728   2.436  1.0360 -0.0132 -0.5613
   28PEO   H22519503   3.888   5.652   2.318  0.3667 -0.5128  1.2152
   28PEO   C22619504   3.917   5.741   2.376  0.3648 -0.0043  0.4426
   28PEO   C22719505   3.818   5.781   2.481  0.6094  0.1331 -0.0073
   28PEO   H22819506   3.852   5.731   2.573  0.9114  0.2011 -0.0829
   28PEO   H22919507   3.821   5.889   2.497  0.0885 -0.1175  2.1315
   28PEO   O22A19508   3.680   5.722   2.450 -0.6911 -0.1885 -0.0233
   28PEO   H22B19509   3.624   5.776   2.640  0.0242 -2.3364  0.1553
   28PEO   H22C19510   3.496   5.699   2.562 -0.4150  0.7236 -0.9972
   28PEO   C22D19511   3.577   5.770   2.541  0.7806 -0.4124 -0.3613
   28PEO   C22E19512   3.519   5.913   2.497 -0.2205 -0.4660 -0.9164
   28PEO   H22F19513   3.501   5.912   2.389 -0.9780  0.2679 -0.8076
   28PEO   H23019514   3.423   5.934   2.547 -1.3212 -2.8493 -1.8522
   28PEO   O23119515   3.618   6.010   2.527 -0.4080 -0.1635  0.4627
   28PEO   H23219516   3.471   6.163   2.520 -0.6937 -2.8604  0.1695
   28PEO   H23319517   3.591   6.154   2.385 -0.5996 -0.0621 -0.4658
   28PEO   C23419518   3.576   6.146   2.494 -0.2238  0.3241 -0.3833
   28PEO   C23519519   3.674   6.242   2.556  0.6651  0.4612  0.5060
   28PEO   H23619520   3.774   6.208   2.525  0.2079 -1.0590  0.6099
   28PEO   H23719521   3.650   6.341   2.516 -1.6650  0.3514  1.4733
   28PEO   O23819522   3.652   6.244   2.698  1.1546 -0.0870 -0.0601
   28PEO   H23919523   3.708   6.451   2.715 -0.3931  0.5947  1.6025
   28PEO   H23A19524   3.837   6.333   2.766  0.8540  4.1697  1.9350
   28PEO   C23B19525   3.729   6.353   2.761 -0.0016  0.0514  0.3054
   28PEO   C23C19526   3.692   6.358   2.912  0.3966  0.9077  0.2977
   28PEO   H23D19527   3.749   6.441   2.956 -0.5727  0.5663  2.3240
   28PEO   H23E19528   3.587   6.391   2.918  0.6671  2.3585 -1.9115
   28PEO   O23F19529   3.701   6.240   2.995  0.0979 -0.1605  0.1237
   28PEO   H24019530   3.636   6.085   2.869 -1.3166  0.3467 -0.2808
   28PEO   H24119531   3.505   6.167   2.949 -1.1752 -3.5337  1.2623
   28PEO   C24219532   3.609   6.135   2.963  0.2091  0.0343  0.3597
   28PEO   C24319533   3.613   6.037   3.078 -0.7350 -0.8932 -0.2010
   28PEO   H24419534   3.593   5.939   3.033  0.0837  0.3875 -3.7235
   28PEO   H24519535   3.709   6.030   3.130 -1.6725  0.2638  1.8033
   28PEO   O24619536   3.509   6.079   3.170 -0.3264 -0.6056  0.0588
   28PEO   H24719537   3.566   5.932   3.320  0.9450 -2.2431 -1.5540
   28PEO   H24819538   3.426   5.882   3.225  2.0001 -2.0343  1.8895
   28PEO   C24919539   3.478   5.970   3.266 -0.0256 -0.4008  1.1297
   28PEO   C24A19540   3.409   6.043   3.388 -0.2565  0.0047 -0.2027
   28PEO   H24B19541   3.388   5.974   3.471  2.2026  0.8795  1.2380
   28PEO   H24C19542   3.481   6.118   3.423  0.4617 -1.0711  0.6862
   28PEO   O24D19543   3.293   6.104   3.342 -0.1520 -0.2916 -0.1199
   28PEO   H24E19544   3.291   6.256   3.487  2.2301 -1.7253 -0.2911
   28PEO   H24F19545   3.213   6.101   3.533 -0.0491  0.6162  0.9298
   28PEO   C25019546   3.230   6.172   3.451  0.6096 -0.6818 -0.0949
   28PEO   C25119547   3.092   6.233   3.403  0.0550  0.5877  0.0245
   28PEO   H25219548   3.049   6.304   3.475  0.3148  0.4157  0.3511
   28PEO   H25319549   3.112   6.289   3.311 -0.9659 -0.0648 -0.6216
   28PEO   O25419550   3.002   6.127   3.379  0.8702  0.0038  0.3702
   28PEO   H25519551   2.810   6.080   3.297  0.8294 -1.4101  1.7707
   28PEO   H25619552   2.894   6.215   3.227  1.3257  0.5318  0.8580
   28PEO   C25719553   2.873   6.166   3.323  0.0094 -0.2697  0.1938
   28PEO   C25819554   2.796   6.264   3.421  0.3454  0.3909  0.0586
   28PEO   H25919555   2.688   6.252   3.405  0.2234  2.5794 -1.2344
   28PEO   H25A19556   2.822   6.248   3.527  0.0472  0.1619  0.0974
   28PEO   O25B19557   2.820   6.398   3.388 -0.1189 -0.1909 -0.1581
   28PEO   H25C19558   2.810   6.580   3.461 -0.8503 -0.9651 -2.9431
   28PEO   H25D19559   2.844   6.453   3.587 -0.1486  1.9179  0.3076
   28PEO   C25E19560   2.782   6.481   3.500 -0.5183 -0.0399 -0.1006
   28PEO   C25F19561   2.628   6.482   3.543 -0.6253  0.6269 -0.1631
   28PEO   H26019562   2.615   6.415   3.628  1.8602  0.2449  0.0014
   28PEO   H26119563   2.608   6.582   3.585  2.0334 -0.0830  3.2096
   28PEO   O26219564   2.537   6.461   3.437  0.5975 -0.3699  0.1283
   28PEO   H26319565   2.363   6.546   3.541  0.7552 -0.9522  2.2536
   28PEO   H26419566   2.384   6.371   3.525  3.5991  1.2402  0.3716
   28PEO   C26519567   2.392   6.466   3.471  0.0508  1.1380 -0.6062
   28PEO   C26619568   2.315   6.475   3.329  0.3998  0.0856 -0.1385
   28PEO   H26719569   2.376   6.433   3.248  0.4647 -2.3883  1.1232
   28PEO   H26819570   2.229   6.408   3.343 -1.3300  2.5918  2.8337
   28PEO   O26919571   2.273   6.603   3.303  0.4412 -0.1520  0.6475
   28PEO   H26A19572   2.442   6.674   3.177  1.8486  2.5758  0.2270
   28PEO   H26B19573   2.447   6.714   3.354  0.4202  0.3955 -0.9378
   28PEO   C26C19574   2.383   6.698   3.267 -0.2448  0.2725 -0.4342
   28PEO   C26D19575   2.308   6.835   3.247  0.4422 -0.3292  0.7315
   28PEO   H26E19576   2.222   6.849   3.315 -1.6931  1.3072 -2.1054
   28PEO   H26F19577   2.386   6.909   3.267  2.2039 -1.8096 -0.3815
   28PEO   O27019578   2.250   6.822   3.114  0.6623  0.3524  1.0742
   28PEO   H27119579   2.180   6.938   2.963  3.1635  1.4912  0.2539
   28PEO   H27219580   2.210   7.027   3.114  0.9182  0.1899 -0.9895
   28PEO   C27319581   2.170   6.934   3.072 -0.8043  0.4528  0.0000
   28PEO   C27419582   2.025   6.914   3.118  0.1248 -0.5202 -0.9189
   28PEO   H27519583   2.031   6.880   3.223  1.4251  3.0763  0.3208
   28PEO   H27619584   1.973   7.010   3.111 -0.3121 -0.7908 -1.3942
   28PEO   O27719585   1.974   6.808   3.039  0.4832 -0.6552  0.3803
   28PEO   H27819586   1.865   6.686   3.152 -1.4259 -0.7708 -2.1709
   28PEO   H27919587   2.041   6.654   3.175  0.8443 -0.6850 -2.0666
   28PEO   C27A19588   1.964   6.685   3.103 -0.4772  0.1828 -0.3627
   28PEO   C27B19589   1.929   6.571   2.997  0.0405 -0.3053 -0.0260
   28PEO   H27C19590   2.004   6.574   2.916 -0.6476 -0.5073 -0.6755
   28PEO   H27D19591   1.942   6.475   3.048  2.0743  0.8977  1.9391
   28PEO   O27E19592   1.798   6.581   2.933 -0.3050  0.2746  0.3265
   28PEO   H27F19593   1.594   6.608   2.961  1.7852 -0.1989 -1.6765
   28PEO   H28019594   1.687   6.639   3.106  0.8171 -1.4204  0.7712
   28PEO   C28119595   1.682   6.573   3.018  0.8649 -0.1775 -0.1799
   28PEO   C28219596   1.656   6.436   3.085 -0.0483 -0.1139 -0.1364
   28PEO   H28319597   1.752   6.397   3.123 -1.7642 -3.3053  1.3408
   28PEO   H28419598   1.582   6.455   3.164 -1.6365  2.5454 -2.1088
   28PEO   O28519599   1.613   6.354   2.977  0.3077  0.1243  0.9944
   28PEO   H28619600   1.603   6.209   3.113  1.8585 -1.9633  0.8200
   28PEO   H28719601   1.721   6.178   2.985 -1.2598 -2.5245 -1.9374
   28PEO   C28819602   1.620   6.218   3.005  0.3595  0.6228  0.7243
   28PEO   C28919603   1.516   6.140   2.928  0.8110 -0.2242  0.2086
   28PEO   H28A19604   1.539   6.128   2.821  0.3870  0.6277  0.0083
   28PEO   H28B19605   1.506   6.047   2.986 -0.8366  0.2677  0.7578
   28PEO   O28C19606   1.393   6.214   2.942 -0.2160 -0.6023  0.6914
   28PEO   H28D19607   1.384   6.253   3.155 -3.1069  0.8105  0.6743
   28PEO   H28E19608   1.333   6.095   3.100  1.3693  0.1495 -0.3642
   28PEO   C28F19609   1.332   6.201   3.073 -0.1680  0.0278 -0.8645
   28PEO   C29019610   1.186   6.248   3.061 -0.5266  0.2197 -0.3857
   28PEO   H29119611   1.169   6.266   2.953 -1.0863 -0.6787 -0.4598
   28PEO   H29219612   1.114   6.171   3.089 -0.3421  0.0583 -0.3571
   28PEO   O29319613   1.154   6.370   3.131  0.4081  0.2386 -0.7363
   28PEO   H29419614   1.031   6.288   3.296 -1.0000  1.1433  1.0158
   28PEO   H29519615   1.068   6.447   3.317 -0.6074 -1.7484  2.0711
   28PEO   C29619616   1.113   6.357   3.272 -0.1666 -0.3012 -0.5954
   28PEO   C29719617   1.230   6.306   3.363 -0.1192 -0.8424 -0.0158
   28PEO   H29819618   1.195   6.277   3.463 -0.1059  1.4436  0.7120
   28PEO   H29919619   1.273   6.214   3.322  0.9619 -0.3742  0.0483
   28PEO   O29A19620   1.341   6.397   3.366  0.7695  0.3235  0.0197
   28PEO   H29B19621   1.376   6.418   3.572  1.9491  0.5342  1.8493
   28PEO   H29C19622   1.503   6.478   3.466  0.9506 -1.1508  1.1435
   28PEO   C29D19623   1.430   6.396   3.479 -0.5014 -0.0269  0.4600
   28PEO   C29E19624   1.519   6.260   3.482 -0.3244 -1.6141  0.7320
   28PEO   H29F19625   1.554   6.237   3.381 -0.9805  0.5765 -0.0638
   28PEO   H2A019626   1.606   6.274   3.549  0.5491 -0.8713 -0.5208
   28PEO   O2A119627   1.435   6.151   3.521 -0.4264 -0.0921 -0.1946
   28PEO   H2A219628   1.534   6.022   3.651 -6.1808 -2.1083  0.4447
   28PEO   H2A319629   1.600   6.026   3.475 -0.2078 -0.8863 -0.5532
   28PEO   C2A419630   1.514   6.034   3.543 -0.3205 -0.1472 -0.7778
   28PEO   C2A519631   1.430   5.911   3.513 -0.3751 -0.5727 -0.2388
   28PEO   H2A619632   1.474   5.820   3.556  0.2113 -0.4907 -0.6574
   28PEO   H2A719633   1.322   5.922   3.533 -0.4215  4.0701 -1.7894
   28PEO   O2A819634   1.422   5.902   3.375 -0.5447  0.2556  0.3407
   28PEO   H2A919635   1.214   5.883   3.321 -0.0409  1.0511  0.6381
   28PEO   H2AA19636   1.288   5.736   3.386 -1.3059 -0.7351 -2.3004
   28PEO   C2AB19637   1.308   5.826   3.325 -0.2966  0.5484 -0.2209
   28PEO   C2AC19638   1.340   5.782   3.183  0.1883  0.1465  0.3696
   28PEO   H2AD19639   1.247   5.735   3.148 -1.7599  3.7133  0.3118
   28PEO   H2AE19640   1.371   5.858   3.109  0.7415 -0.4119  0.0203
   28PEO   O2AF19641   1.443   5.682   3.183  0.1029  0.3137 -0.3572
   28PEO   H2B019642   1.474   5.657   2.973 -0.8044  1.5081  1.8064
   28PEO   H2B119643   1.344   5.555   3.046  0.6255 -1.8609 -1.2637
   28PEO   C2B219644   1.443   5.602   3.063 -0.3652 -0.3787  0.8578
   28PEO   C2B319645   1.541   5.481   3.075  0.2339 -0.0065  0.1089
   28PEO   H2B419646   1.489   5.406   3.136 -2.0736  2.4507  1.3932
   28PEO   H2B519647   1.557   5.433   2.978 -1.6453  0.5158 -0.5045
   28PEO   O2B619648   1.661   5.528   3.141 -0.4326 -0.1605  0.4875
   28PEO   H2B719649   1.761   5.355   3.200  0.2209  0.8220  1.4031
   28PEO   H2B819650   1.858   5.498   3.175  0.1762 -1.9428  2.9900
   28PEO   C2B919651   1.772   5.442   3.134 -0.1005  0.1447  0.4118
   28PEO   C2BA19652   1.805   5.395   2.989  0.4359 -0.2086  0.4510
   28PEO   H2BB19653   1.758   5.458   2.913 -0.0680 -2.6032 -1.3481
   28PEO   H2BC19654   1.910   5.411   2.960  1.1553 -2.3295  1.6598
   28PEO   O2BD19655   1.767   5.260   2.969  0.0812  0.2646  0.6738
   28PEO   H2BE19656   1.772   5.265   2.872 -0.9506  0.9157  0.6381
   29PEO   H00119657   3.940   3.289   4.542 -0.0798 -1.2711  1.0502
   29PEO   H00219658   3.858   3.432   4.614  0.3637 -0.2251  0.0151
   29PEO   H00319659   3.764   3.301   4.551 -0.0195 -0.0051 -0.4402
   29PEO   C00419660   3.856   3.359   4.532  0.5436 -0.6096  0.3455
   29PEO   C00519661   3.843   3.416   4.385  0.0975  0.8303 -0.2877
   29PEO   H00619662   3.873   3.352   4.300 -0.5532  0.6100 -0.3619
   29PEO   H00719663   3.742   3.456   4.366  0.0838  0.5183 -0.9272
   29PEO   O00819664   3.935   3.523   4.388  0.2804  0.0310  0.1226
   29PEO   H00919665   3.864   3.590   4.206 -1.2418 -2.0656  0.0914
   29PEO   H00A19666   4.017   3.497   4.201  1.2437  0.3922  0.1243
   29PEO   C00B19667   3.961   3.573   4.256 -0.9368 -0.9596 -0.1074
   29PEO   C00C19668   4.040   3.708   4.265  0.5063 -1.0562  0.4436
   29PEO   H00D19669   4.142   3.677   4.291  0.4489 -0.5741  1.2789
   29PEO   H00E19670   4.034   3.744   4.161  1.7262  1.7225  1.2422
   29PEO   O00F19671   3.973   3.788   4.365 -0.0462 -0.3620  0.5964
   29PEO   H01019672   3.779   3.752   4.320  0.7430 -0.1327 -3.0644
   29PEO   H01119673   3.848   3.880   4.227  0.0432  0.5208  0.2424
   29PEO   C01219674   3.845   3.839   4.329  0.1171  0.1190  0.0855
   29PEO   C01319675   3.797   3.940   4.438 -0.0044 -0.3229 -0.6651
   29PEO   H01419676   3.697   3.966   4.400  0.2087 -2.0200 -2.5538
   29PEO   H01519677   3.785   3.889   4.535  1.8832 -0.7659 -0.6295
   29PEO   O01619678   3.874   4.055   4.475  0.0015 -0.5386  0.4494
   29PEO   H01719679   3.696   4.097   4.580  2.7487 -3.6865  0.3968
   29PEO   H01819680   3.740   4.225   4.468 -0.2031  1.3843  1.8866
   29PEO   C01919681   3.782   4.149   4.536  0.5435  0.1895  0.1599
   29PEO   C01A19682   3.853   4.219   4.646  0.1895 -0.4150  1.0571
   29PEO   H01B19683   3.954   4.237   4.607 -0.0351 -2.0457 -0.3640
   29PEO   H01C19684   3.815   4.321   4.663  2.2916  0.7022 -0.4411
   29PEO   O01D19685   3.856   4.133   4.764 -0.1053 -0.5392 -1.2273
   29PEO   H01E19686   3.992   4.291   4.845  0.1254  0.4227  1.5213
   29PEO   H01F19687   4.054   4.127   4.838 -0.4128 -0.1723  0.3924
   29PEO   C02019688   3.962   4.185   4.851 -0.1356  0.3836 -0.0652
   29PEO   C02119689   3.922   4.176   4.999 -0.1099 -0.4000  0.2371
   29PEO   H02219690   3.981   4.244   5.063 -0.7306  1.1161 -0.7309
   29PEO   H02319691   3.816   4.201   5.018  0.1786  1.1319 -0.0259
   29PEO   O02419692   3.955   4.048   5.034  0.1086  0.4016  0.3049
   29PEO   H02519693   3.811   4.037   5.181  0.2365 -1.0629  0.7088
   29PEO   H02619694   3.973   4.070   5.241  2.0378 -1.0186 -0.4916
   29PEO   C02719695   3.917   4.010   5.168  0.3903 -0.1889  0.0251
   29PEO   C02819696   3.939   3.860   5.186 -0.9152 -0.3256 -0.1471
   29PEO   H02919697   4.048   3.846   5.173 -0.7529  2.1104 -2.3233
   29PEO   H02A19698   3.913   3.825   5.287  0.8227 -0.9670  0.1204
   29PEO   O02B19699   3.864   3.788   5.091  0.4773 -0.0769  0.2960
   29PEO   H02C19700   3.882   3.603   5.201  1.4745  0.4774 -0.1538
   29PEO   H02D19701   3.997   3.629   5.064  0.2527  0.5747  0.4590
   29PEO   C02E19702   3.895   3.647   5.101 -0.0275  0.6196 -0.3164
   29PEO   C02F19703   3.811   3.565   4.997  0.2478  0.3042 -0.3974
   29PEO   H03019704   3.827   3.616   4.900 -0.1891  1.9777  0.3741
   29PEO   H03119705   3.849   3.464   4.976  1.1992  0.5850 -0.0824
   29PEO   O03219706   3.669   3.558   5.038 -0.3950  0.5972  0.1965
   29PEO   H03319707   3.614   3.373   4.965 -3.4150 -0.7804 -1.1185
   29PEO   H03419708   3.610   3.508   4.847  0.1904 -2.3085 -0.2718
   29PEO   C03519709   3.588   3.479   4.951 -0.0754  0.3921  0.5027
   29PEO   C03619710   3.438   3.480   4.989  0.1143  0.5102 -0.5324
   29PEO   H03719711   3.408   3.583   5.013  2.6754  1.6272 -1.6501
   29PEO   H03819712   3.384   3.455   4.896  1.1660 -1.6087 -0.6191
   29PEO   O03919713   3.424   3.379   5.085 -0.0589 -0.3437  0.7125
   29PEO   H03A19714   3.374   3.452   5.285 -2.2173  1.5034 -2.4657
   29PEO   H03B19715   3.535   3.500   5.221  0.1876 -0.2330  0.0106
   29PEO   C03C19716   3.457   3.423   5.219 -0.4152  0.3669  0.1329
   29PEO   C03D19717   3.501   3.298   5.294 -0.3249 -0.0806 -0.3461
   29PEO   H03E19718   3.525   3.321   5.399  0.1019  1.5404 -0.7627
   29PEO   H03F19719   3.424   3.220   5.300  0.4446 -0.7610  1.2342
   29PEO   O04019720   3.625   3.245   5.241 -0.3588 -0.4059 -0.1123
   29PEO   H04119721   3.746   3.319   5.395  0.6501 -1.4344  0.0772
   29PEO   H04219722   3.734   3.429   5.258 -1.4824  0.6583  2.7648
   29PEO   C04319723   3.738   3.322   5.285 -0.1028 -0.0324  0.1488
   29PEO   C04419724   3.855   3.250   5.210  0.4225 -0.8985  0.1425
   29PEO   H04519725   3.813   3.235   5.109 -0.9947 -0.5409  0.6542
   29PEO   H04619726   3.928   3.332   5.209 -1.3561  0.8537  2.6210
   29PEO   O04719727   3.888   3.125   5.267  0.1860 -0.1372  0.0213
   29PEO   H04819728   4.075   3.091   5.224 -0.9729  2.0860  0.1926
   29PEO   H04919729   3.955   3.048   5.082  1.3684  2.4904 -0.5169
   29PEO   C04A19730   3.981   3.047   5.189  0.1833 -0.2193 -0.1938
   29PEO   C04B19731   3.979   2.902   5.239  0.2398  0.5134 -1.2363
   29PEO   H04C19732   4.061   2.855   5.183  1.1926  1.2038 -0.4650
   29PEO   H04D19733   3.986   2.899   5.349 -1.5846  0.0691 -1.1107
   29PEO   O04E19734   3.856   2.843   5.209  0.7360  0.6453  0.2491
   29PEO   H04F19735   3.838   2.744   5.394 -0.2100  3.0719 -1.2918
   29PEO   H05019736   3.891   2.640   5.250 -0.5665 -0.9324 -1.5731
   29PEO   C05119737   3.830   2.724   5.286  0.7423 -0.2375 -0.8533
   29PEO   C05219738   3.676   2.685   5.269 -0.4654 -0.0165 -0.3557
   29PEO   H05319739   3.654   2.669   5.163 -1.4700 -0.8758 -0.0327
   29PEO   H05419740   3.648   2.604   5.337  0.1718 -0.4492 -0.6015
   29PEO   O05519741   3.600   2.806   5.303  0.2979 -0.4387  0.4721
   29PEO   H05619742   3.430   2.728   5.378  1.2606 -1.1372 -0.3952
   29PEO   H05719743   3.436   2.705   5.203  0.5732 -0.3941 -0.0645
   29PEO   C05819744   3.459   2.776   5.284  0.1888 -0.0897 -0.2213
   29PEO   C05919745   3.387   2.917   5.271  0.0019  0.3706 -0.0723
   29PEO   H05A19746   3.279   2.897   5.285 -0.2855 -0.5184 -3.0229
   29PEO   H05B19747   3.410   2.987   5.353  1.2070  0.2765 -0.3134
   29PEO   O05C19748   3.408   2.979   5.147 -0.6688 -0.5450  0.4466
   29PEO   H05D19749   3.578   2.886   5.063 -2.0668 -0.4433 -0.5806
   29PEO   H05E19750   3.623   3.013   5.173 -0.4733 -2.6308  2.5363
   29PEO   C05F19751   3.548   2.985   5.098  0.2828 -0.1272  0.7267
   29PEO   C06019752   3.553   3.072   4.971 -0.5167 -0.3468 -0.1119
   29PEO   H06119753   3.520   3.172   5.002 -0.9446  0.0706 -1.8055
   29PEO   H06219754   3.657   3.082   4.935  1.1643  0.7455  4.3871
   29PEO   O06319755   3.465   3.014   4.869  0.7330 -0.0326  0.2320
   29PEO   H06419756   3.498   3.136   4.695  1.2482 -0.5330  1.3399
   29PEO   H06519757   3.381   3.200   4.818 -2.0248 -0.8592 -0.4560
   29PEO   C06619758   3.419   3.110   4.767  0.2013 -0.4017  0.2706
   29PEO   C06719759   3.303   3.044   4.691 -0.0343  0.1255  0.2010
   29PEO   H06819760   3.237   3.004   4.769  0.2979  1.6460  1.3191
   29PEO   H06919761   3.253   3.131   4.644 -2.7821 -0.9704  0.8882
   29PEO   O06A19762   3.343   2.936   4.611 -0.4411 -0.4528  0.9586
   29PEO   H06B19763   3.137   2.917   4.539 -0.7031  1.4526 -1.0131
   29PEO   H06C19764   3.263   2.809   4.476 -0.0376 -0.0261 -0.8675
   29PEO   C06D19765   3.242   2.912   4.509 -0.4122 -0.3982  0.1200
   29PEO   C06E19766   3.259   3.011   4.391 -0.1390  0.2996  0.7058
   29PEO   H06F19767   3.173   2.992   4.326  0.6210 -1.6625  0.1702
   29PEO   H07019768   3.266   3.115   4.425  3.6881  0.8267 -1.1397
   29PEO   O07119769   3.375   2.976   4.307 -0.0306  0.2579  0.4733
   29PEO   H07219770   3.550   2.977   4.423  1.3360 -1.0717 -1.2421
   29PEO   H07319771   3.520   3.131   4.336  0.7097  0.6833 -0.6583
   29PEO   C07419772   3.508   3.022   4.331  0.9132  0.6404 -0.2593
   29PEO   C07519773   3.581   2.953   4.214  0.0751  0.0525 -0.0268
   29PEO   H07619774   3.677   3.002   4.189 -0.1311  0.5358  0.1334
   29PEO   H07719775   3.586   2.843   4.223 -0.6457  0.1027  1.1180
   29PEO   O07819776   3.511   2.980   4.093 -0.2269  0.1262 -0.1359
   29PEO   H07919777   3.499   2.838   3.950 -0.1481 -0.8084  0.1933
   29PEO   H07A19778   3.673   2.876   4.000 -0.6639 -1.2504 -0.7507
   29PEO   C07B19779   3.573   2.916   3.978 -0.2920 -0.3007 -0.8029
   29PEO   C07C19780   3.588   3.022   3.867 -0.1066 -0.2412  0.3603
   29PEO   H07D19781   3.597   2.975   3.768  0.5515  0.6193  0.0028
   29PEO   H07E19782   3.504   3.093   3.864  1.2110  1.3624 -0.1742
   29PEO   O07F19783   3.706   3.095   3.894  0.2499 -0.3565 -0.0296
   29PEO   H08019784   3.656   3.169   4.086 -0.1068  1.7566  0.0446
   29PEO   H08119785   3.622   3.276   3.958  2.6612  2.9398  0.9239
   29PEO   C08219786   3.697   3.202   3.989  0.6993  0.3852 -0.1043
   29PEO   C08319787   3.833   3.276   4.002 -0.0490 -0.5847  0.2642
   29PEO   H08419788   3.864   3.294   3.898  1.5356  0.9079  0.9583
   29PEO   H08519789   3.828   3.372   4.056 -2.7527  0.6105 -1.8590
   29PEO   O08619790   3.913   3.195   4.083  0.5805  0.3890 -1.0942
   29PEO   H08719791   4.072   3.323   4.119 -2.0414 -1.1837  3.8281
   29PEO   H08819792   4.088   3.223   3.965  2.0386 -2.4522  0.9585
   29PEO   C08919793   4.049   3.228   4.068 -0.1217  0.1425  0.1211
   29PEO   C08A19794   4.134   3.122   4.147  0.2256 -0.5129 -0.7037
   29PEO   H08B19795   4.112   3.020   4.111 -2.2325 -0.8679  1.5109
   29PEO   H08C19796   4.241   3.146   4.145  0.7375 -2.4763  0.4437
   29PEO   O08D19797   4.096   3.140   4.286 -0.8798 -0.4769  0.0906
   29PEO   H08E19798   4.076   3.058   4.469 -0.5242  0.9189  0.7146
   29PEO   H08F19799   4.129   2.948   4.342  0.1504  1.2454 -0.4975
   29PEO   C09019800   4.058   3.029   4.364  0.2003  1.0227  0.5571
   29PEO   C09119801   3.917   2.982   4.323 -0.6425 -0.4643 -0.1419
   29PEO   H09219802   3.906   3.003   4.216  1.7317  1.5775 -0.0766
   29PEO   H09319803   3.916   2.872   4.322  2.1935 -0.5859 -2.0409
   29PEO   O09419804   3.817   3.032   4.413  0.4260  0.0413  0.3139
   29PEO   H09519805   3.903   2.887   4.543  1.7011  1.4618 -2.0412
   29PEO   H09619806   3.729   2.883   4.524 -1.1148  0.2825  0.7609
   29PEO   C09719807   3.814   2.952   4.537 -0.1895 -0.7005  0.1298
   29PEO   C09819808   3.784   3.030   4.666  0.6970 -0.7654 -0.3794
   29PEO   H09919809   3.714   3.114   4.653  0.5408 -0.8549 -0.1190
   29PEO   H09A19810   3.745   2.955   4.735  2.3378 -0.2470  1.1873
   29PEO   O09B19811   3.904   3.087   4.712  0.2488  0.2942 -0.4592
   29PEO   H09C19812   3.855   3.126   4.914  3.4579 -4.6123  0.0377
   29PEO   H09D19813   3.826   3.262   4.796 -1.9583 -1.4752 -1.2800
   29PEO   C09E19814   3.891   3.178   4.824 -0.6279  0.1571  0.7604
   29PEO   C09F19815   4.026   3.224   4.875  0.1588  0.2873  0.5779
   29PEO   H0A019816   4.012   3.286   4.964 -2.2881  0.3319  0.2393
   29PEO   H0A119817   4.092   3.142   4.908 -0.7689 -0.6625  0.1536
   29PEO   O0A219818   4.085   3.300   4.767 -0.2665 -0.3059 -0.0688
   29PEO   H0A319819   4.280   3.380   4.793 -0.3107  1.8011 -3.1026
   29PEO   H0A419820   4.159   3.438   4.910 -1.0755  2.1620  0.3013
   29PEO   C0A519821   4.174   3.408   4.805 -0.4840  0.1097  0.9353
   29PEO   C0A619822   4.150   3.535   4.717  0.4811  0.1391  0.3634
   29PEO   H0A719823   4.226   3.609   4.748 -1.0706  0.9778  2.4436
   29PEO   H0A819824   4.157   3.497   4.614  0.9147 -1.8208  1.0647
   29PEO   O0A919825   4.020   3.587   4.732  0.3075 -0.0851 -0.4051
   29PEO   H0AA19826   3.900   3.722   4.632  0.0810  2.1874  0.5182
   29PEO   H0AB19827   4.053   3.710   4.566  0.6577  0.1231 -0.1172
   29PEO   C0AC19828   4.004   3.713   4.664  0.2009 -0.0670 -0.3352
   29PEO   C0AD19829   4.042   3.846   4.742  0.9805 -0.1060 -0.3039
   29PEO   H0AE19830   4.013   3.925   4.671 -1.1475 -0.9663 -0.4571
   29PEO   H0AF19831   3.989   3.856   4.838 -2.5083 -1.6600 -1.8814
   29PEO   O0B019832   4.183   3.834   4.750  0.1858 -0.6972 -0.9819
   29PEO   H0B119833   4.201   3.916   4.948 -3.3086 -1.1095 -1.6876
   29PEO   H0B219834   4.231   4.036   4.819 -0.6438  0.0218  1.0364
   29PEO   C0B319835   4.245   3.931   4.848  0.1537 -0.2203 -0.1555
   29PEO   C0B419836   4.403   3.915   4.869  0.0432 -0.4547  0.7740
   29PEO   H0B519837   4.445   4.016   4.874  0.1796 -0.2080 -2.7700
   29PEO   H0B619838   4.433   3.847   4.950  1.8322  0.5263  0.9982
   29PEO   O0B719839   4.457   3.853   4.742 -0.1918 -0.7298 -0.0542
   29PEO   H0B819840   4.580   3.724   4.849 -4.3477 -0.1969 -0.5354
   29PEO   H0B919841   4.662   3.867   4.767  0.9343  0.0055 -1.4644
   29PEO   C0BA19842   4.583   3.791   4.761  0.4569  0.3706 -0.1874
   29PEO   C0BB19843   4.609   3.705   4.638  0.4577  0.0044  0.0001
   29PEO   H0BC19844   4.695   3.639   4.657 -0.1546 -0.5527  0.9084
   29PEO   H0BD19845   4.526   3.636   4.618  0.2148  0.2881  0.0293
   29PEO   O0BE19846   4.631   3.781   4.522 -0.1407  0.1250 -0.2049
   29PEO   H0BF19847   4.650   3.612   4.396  1.2477 -0.7300 -1.6060
   29PEO   H0C019848   4.808   3.672   4.458  0.1133 -0.0631 -2.0638
   29PEO   C0C119849   4.707   3.701   4.426 -0.6595 -0.0531  0.2336
   29PEO   C0C219850   4.721   3.797   4.305 -0.4387  0.4591  0.6481
   29PEO   H0C319851   4.704   3.902   4.335 -2.6356  0.0612  1.0042
   29PEO   H0C419852   4.825   3.795   4.270 -0.8441 -2.9459 -0.7037
   29PEO   O0C519853   4.628   3.767   4.198  0.5484  0.0271 -0.7583
   29PEO   H0C619854   4.720   3.588   4.157 -0.0361  0.4970  2.7238
   29PEO   H0C719855   4.727   3.712   4.021 -1.0350 -3.9809 -0.4157
   29PEO   C0C819856   4.669   3.672   4.106 -0.7773 -0.6547  1.5157
   29PEO   C0C919857   4.552   3.603   4.026  0.1351 -0.0038 -0.1159
   29PEO   H0CA19858   4.485   3.680   3.987  0.3992  0.9350  1.2284
   29PEO   H0CB19859   4.592   3.546   3.940 -2.2990 -0.7872 -0.8106
   29PEO   O0CC19860   4.474   3.508   4.100  0.8348  0.1933 -0.7871
   29PEO   H0CD19861   4.314   3.618   4.147  0.8679  1.2578  0.0843
   29PEO   H0CE19862   4.445   3.623   4.267  1.6590 -0.3426 -0.8248
   29PEO   C0CF19863   4.388   3.557   4.200 -0.0968  0.1147  0.1446
   29PEO   C0D019864   4.342   3.447   4.289  0.6758 -0.3374 -0.6627
   29PEO   H0D119865   4.259   3.487   4.350  1.5089  0.4966 -0.0506
   29PEO   H0D219866   4.313   3.354   4.238 -0.5807  0.5135 -1.5669
   29PEO   O0D319867   4.454   3.401   4.371  0.5732 -0.0436  0.5218
   29PEO   H0D419868   4.342   3.236   4.426  1.0379 -0.1014 -1.3801
   29PEO   H0D519869   4.359   3.363   4.553 -1.8182  0.9998 -1.5192
   29PEO   C0D619870   4.411   3.307   4.475 -0.3193  0.4425 -0.1794
   29PEO   C0D719871   4.536   3.219   4.522 -0.4123 -0.8520 -0.4066
   29PEO   H0D819872   4.501   3.122   4.562  0.7296 -1.1999 -0.2093
   29PEO   H0D919873   4.600   3.187   4.439  2.0883 -1.5862  1.6799
   29PEO   O0DA19874   4.605   3.298   4.619  0.4802  0.5211 -0.1135
   29PEO   H0DB19875   4.634   3.164   4.777  0.9414 -0.4139 -0.9998
   29PEO   H0DC19876   4.484   3.255   4.779  0.1582 -2.1505 -2.2389
   29PEO   C0DD19877   4.591   3.263   4.756  0.4507 -0.5196 -0.4965
   29PEO   C0DE19878   4.639   3.384   4.841  0.2704 -0.8523  0.2442
   29PEO   H0DF19879   4.557   3.456   4.848  0.0815 -0.8162 -1.8193
   29PEO   H0E019880   4.653   3.342   4.942  1.4544 -1.0277  0.0204
   29PEO   O0E119881   4.757   3.452   4.790  0.2948  0.4838  0.1978
   29PEO   H0E219882   4.869   3.420   4.948 -1.9546 -1.0349  0.4928
   29PEO   H0E319883   4.770   3.573   4.951  1.9839  2.0628 -0.5553
   29PEO   C0E419884   4.832   3.506   4.890  0.4589 -0.1350  0.1660
   29PEO   C0E519885   4.950   3.586   4.830 -0.3155 -0.0554 -0.4364
   29PEO   H0E619886   5.014   3.600   4.918  0.8069  0.0601 -1.2487
   29PEO   H0E719887   4.984   3.531   4.741 -1.4951 -0.5449 -0.6096
   29PEO   O0E819888   4.904   3.721   4.788 -0.9095  0.3483  0.9890
   29PEO   H0E919889   4.931   3.869   4.656 -0.4001 -0.9460 -2.7765
   29PEO   H0EA19890   4.982   3.708   4.596 -0.8404 -2.6136  1.1479
   29PEO   C0EB19891   4.986   3.777   4.681 -0.3542 -0.3684 -0.5918
   29PEO   C0EC19892   5.124   3.811   4.725 -0.5307 -0.2437  0.1671
   29PEO   H0ED19893   5.154   3.903   4.672 -0.4371  2.2591  4.1462
   29PEO   H0EE19894   5.124   3.824   4.834  1.8121 -1.8982  0.4525
   29PEO   O0EF19895   5.220   3.699   4.697 -0.1228 -0.3504 -0.4241
   29PEO   H0F019896   5.339   3.814   4.575  0.9007 -0.1729  1.5435
   29PEO   H0F119897   5.235   3.692   4.497 -1.2444  4.1277  0.1645
   29PEO   C0F219898   5.306   3.709   4.580  0.4786 -0.1415 -0.1520
   29PEO   C0F319899   5.425   3.600   4.592  0.5210  0.0351  0.0109
   29PEO   H0F419900   5.384   3.499   4.603 -1.1796  0.8346  1.5793
   29PEO   H0F519901   5.483   3.599   4.498 -1.7026  1.7758 -1.4759
   29PEO   O0F619902   5.507   3.634   4.706 -0.3271 -0.3753 -0.4084
   29PEO   H0F719903   5.565   3.840   4.684 -2.0979 -0.4819 -3.6951
   29PEO   H0F819904   5.648   3.738   4.576 -1.1005 -0.3514 -0.8899
   29PEO   C0F919905   5.607   3.738   4.677  0.1683  0.0581 -0.3548
   29PEO   C0FA19906   5.717   3.725   4.787  0.7922  0.2710 -0.5261
   29PEO   H0FB19907   5.766   3.627   4.795 -0.3354 -0.4063 -1.5499
   29PEO   H0FC19908   5.799   3.796   4.772  0.4246  0.8117  0.0246
   29PEO   O0FD19909   5.651   3.769   4.912 -0.4360  0.3281  0.3431
   29PEO   H0FE19910   5.818   3.828   5.000 -1.4238  0.8946 -0.5187
   29PEO   H0FF19911   5.760   3.656   5.038 -0.0377 -0.1023  0.7503
   29PEO   C10019912   5.733   3.762   5.024 -0.5462 -0.4370 -0.9690
   29PEO   C10119913   5.651   3.819   5.141  0.0781  0.7446  0.0675
   29PEO   H10219914   5.715   3.879   5.207 -0.5403  0.8532  0.5680
   29PEO   H10319915   5.563   3.875   5.106 -0.3289  0.4263  0.5644
   29PEO   O10419916   5.603   3.711   5.215  0.2579 -0.2460  0.4833
   29PEO   H10519917   5.551   3.825   5.390 -0.8302 -0.7212  2.1991
   29PEO   H10619918   5.498   3.653   5.374  2.1841 -0.4750 -1.5221
   29PEO   C10719919   5.508   3.750   5.322  0.2775  0.5839 -0.0720
   29PEO   C10819920   5.373   3.791   5.267  0.2276 -0.1896 -0.3149
   29PEO   H10919921   5.314   3.812   5.358  0.4131  2.5222 -0.7147
   29PEO   H10A19922   5.368   3.876   5.197 -2.0087 -1.5817 -1.9724
   29PEO   O10B19923   5.319   3.677   5.204 -0.2351  0.4744 -0.2983
   29PEO   H10C19924   5.395   3.760   5.020  1.1185 -1.4393 -1.5986
   29PEO   H10D19925   5.222   3.723   5.026 -0.5571 -3.1336 -1.3393
   29PEO   C10E19926   5.321   3.690   5.062  0.2935  0.0787 -0.4214
   29PEO   C10F19927   5.342   3.550   5.003  0.7084  0.1998 -0.2184
   29PEO   H11019928   5.353   3.557   4.894  2.0277  0.9392 -0.0561
   29PEO   H11119929   5.435   3.501   5.035 -0.7662 -2.6885 -0.0054
   29PEO   O11219930   5.238   3.458   5.040  0.5741 -0.6485 -0.4873
   29PEO   H11319931   5.316   3.323   4.907 -1.1669 -2.2561 -0.7084
   29PEO   H11419932   5.154   3.377   4.854 -0.0875 -0.5799 -0.0793
   29PEO   C11519933   5.218   3.361   4.942  0.2409  1.1101  0.0214
   29PEO   C11619934   5.155   3.243   5.013 -0.3516 -0.0476 -0.4678
   29PEO   H11719935   5.185   3.228   5.118 -0.5922  1.5172 -0.1479
   29PEO   H11819936   5.047   3.265   5.019  0.3881  4.5577 -0.2474
   29PEO   O11919937   5.168   3.119   4.939  0.1361 -0.1926  0.0203
   29PEO   H11A19938   5.174   3.018   4.754  2.7174  1.8105 -0.3853
   29PEO   H11B19939   5.159   3.191   4.738  0.2217 -0.2226 -0.6567
   29PEO   C11C19940   5.128   3.106   4.801 -0.0295  0.3258 -0.0293
   29PEO   C11D19941   4.980   3.088   4.795 -0.1057 -0.5484 -0.7081
   29PEO   H11E19942   4.932   3.150   4.872  0.8235  0.2020 -0.7117
   29PEO   H11F19943   4.952   3.126   4.696 -1.1529  3.3794  0.9288
   29PEO   O12019944   4.946   2.949   4.797 -0.2509  0.2967  0.0009
   29PEO   H12119945   5.098   2.881   4.931 -0.7705 -0.4329  1.2746
   29PEO   H12219946   4.985   2.767   4.863  1.4734 -0.4585 -0.0543
   29PEO   C12319947   4.992   2.869   4.904 -0.4629 -0.2874 -0.0651
   29PEO   C12419948   4.892   2.884   5.030 -0.6417  0.4215  1.0943
   29PEO   H12519949   4.792   2.905   4.991 -0.7011  2.4980  2.2053
   29PEO   H12619950   4.885   2.790   5.088 -0.6424  1.0217  2.0876
   29PEO   O12719951   4.922   2.999   5.116  0.0388  0.1101 -0.5622
   29PEO   H12819952   4.757   2.991   5.232 -0.3915  0.3580  0.1385
   29PEO   H12919953   4.751   3.102   5.085 -0.3297  3.0465  0.9702
   29PEO   C12A19954   4.810   3.066   5.171 -0.0261 -0.4033 -0.5062
   29PEO   C12B19955   4.869   3.194   5.246  0.2261 -0.4423 -0.2468
   29PEO   H12C19956   4.910   3.254   5.164 -0.4919 -0.5977 -0.7293
   29PEO   H12D19957   4.789   3.253   5.293  1.0892 -0.6351  1.5376
   29PEO   O12E19958   4.961   3.144   5.351 -0.0249 -0.5503  0.6115
   29PEO   H12F19959   5.125   3.270   5.299 -0.4794 -2.3914 -1.7896
   29PEO   H13019960   5.139   3.184   5.453  3.2648  1.4459 -1.6905
   29PEO   C13119961   5.067   3.234   5.386  0.5410  0.1338  0.0487
   29PEO   C13219962   5.019   3.343   5.483  0.6512  0.4902 -0.2332
   29PEO   H13319963   4.929   3.314   5.539  0.7600  0.3027 -0.1557
   29PEO   H13419964   5.098   3.361   5.558  1.0522  3.3006 -1.1811
   29PEO   O13519965   4.984   3.470   5.421 -0.4159 -0.1281  0.3227
   29PEO   H13619966   5.109   3.480   5.271  0.7597 -0.1904  0.8700
   29PEO   H13719967   5.175   3.553   5.414 -0.1098 -1.7058 -0.6330
   29PEO   C13819968   5.083   3.547   5.355 -0.6518  0.5081 -0.0943
   29PEO   C13919969   5.030   3.683   5.310 -0.0116 -0.5465 -0.2672
   29PEO   H13A19970   5.090   3.720   5.226 -0.3776  0.2478 -0.1829
   29PEO   H13B19971   4.921   3.672   5.301 -0.0641 -0.5366  0.3332
   29PEO   O13C19972   5.053   3.777   5.419  0.5100  0.3729  0.2435
   29PEO   H13D19973   4.928   3.932   5.377 -0.6454 -3.6803  0.0138
   29PEO   H13E19974   5.091   3.944   5.295  0.0755  0.9554  0.0799
   29PEO   C13F19975   5.037   3.919   5.388 -0.0295  0.3290 -0.1430
   29PEO   C14019976   5.089   4.008   5.498 -0.0063 -0.7533 -0.9582
   29PEO   H14119977   5.041   4.106   5.489  0.9357 -0.2341 -0.4547
   29PEO   H14219978   5.058   3.966   5.595  1.3869  1.4601  0.5506
   29PEO   O14319979   5.226   4.024   5.495 -0.2171  0.3090  0.3864
   29PEO   H14419980   5.210   4.166   5.646  1.2795 -1.8041  1.0297
   29PEO   H14519981   5.282   4.229   5.498  3.3914  0.2476 -0.1566
   29PEO   C14619982   5.279   4.141   5.563 -0.1932 -0.2267 -0.7802
   29PEO   C14719983   5.422   4.106   5.606 -0.7290 -0.4002  0.3722
   29PEO   H14819984   5.456   4.164   5.692 -1.7884  0.3687  0.2966
   29PEO   H14919985   5.409   4.001   5.638 -0.5236 -0.4758  0.2122
   29PEO   O14A19986   5.508   4.120   5.495 -0.0760 -0.1498  0.5064
   29PEO   H14B19987   5.655   3.971   5.532  1.2517  0.2869 -1.0885
   29PEO   H14C19988   5.666   4.115   5.630 -0.0179 -1.4464 -0.2030
   29PEO   C14D19989   5.642   4.081   5.528 -0.7008  0.1157 -0.6124
   29PEO   C14E19990   5.756   4.136   5.441 -0.4104 -0.3865 -0.3655
   29PEO   H14F19991   5.740   4.244   5.425 -3.4522 -1.0199 -2.4083
   29PEO   H15019992   5.847   4.107   5.495  0.0252 -0.2211 -1.0003
   29PEO   O15119993   5.742   4.077   5.309  0.4646 -0.6079  0.4087
   29PEO   H15219994   5.873   4.212   5.237  1.8098 -0.0975 -0.5250
   29PEO   H15319995   5.818   4.080   5.124  0.4250  3.3047 -0.8095
   29PEO   C15419996   5.855   4.104   5.225 -0.5770  0.1338  0.4417
   29PEO   C15519997   5.970   4.015   5.280  0.1035  0.0280  0.5465
   29PEO   H15619998   6.036   4.078   5.341  0.1480 -0.8249  1.3958
   29PEO   H15719999   5.930   3.937   5.347  0.0230  2.2432  3.2215
   29PEO   O15820000   6.043   3.948   5.178 -0.4601 -0.2462  0.7424
   29PEO   H15920001   6.172   4.110   5.117  0.2732 -0.3913 -1.3057
   29PEO   H15A20002   6.027   4.079   5.019  2.3781 -1.2150 -3.6573
   29PEO   C15B20003   6.107   4.031   5.077  0.4568 -0.9309 -0.5602
   29PEO   C15C20004   6.196   3.948   4.985  0.1835 -1.0737  0.1991
   29PEO   H15D20005   6.265   4.018   4.937 -0.0730  0.7315  2.3148
   29PEO   H15E20006   6.248   3.868   5.039  0.6831 -0.9182 -0.0530
   29PEO   O15F20007   6.113   3.898   4.885  0.0676  0.6266 -0.0277
   29PEO   H16020008   6.268   3.759   4.855  1.5167  0.0614 -1.5349
   29PEO   H16120009   6.240   3.879   4.724 -1.1029  1.6730  1.0593
   29PEO   C16220010   6.191   3.812   4.797 -0.0115 -0.1020  0.2337
   29PEO   C16320011   6.101   3.712   4.715  0.3232 -0.1190  0.2061
   29PEO   H16420012   6.165   3.632   4.675  0.1586 -0.5911  0.8618
   29PEO   H16520013   6.026   3.667   4.782  1.6343 -4.5034 -0.9581
   29PEO   O16620014   6.055   3.792   4.607 -0.0253  0.1344 -0.6903
   29PEO   H16720015   5.904   3.660   4.541  0.7445 -1.4474 -0.1037
   29PEO   H16820016   6.059   3.628   4.474  0.2654 -0.7814  3.5932
   29PEO   C16920017   5.995   3.711   4.506 -0.2065  0.4249  0.0194
   29PEO   C16A20018   5.949   3.807   4.393 -1.0529  0.7117  0.2320
   29PEO   H16B20019   6.029   3.880   4.372 -1.3194  1.6563  2.2518
   29PEO   H16C20020   5.925   3.759   4.297  1.8124  2.4061 -1.4766
   29PEO   O16D20021   5.824   3.871   4.433 -0.0970 -0.2441 -0.2126
   29PEO   H16E20022   5.723   3.904   4.250 -1.7269  1.2150  0.7691
   29PEO   H16F20023   5.864   4.015   4.295  0.0858 -1.2826 -1.2174
   29PEO   C17020024   5.773   3.962   4.329 -0.2373  0.2686  0.5513
   29PEO   C17120025   5.672   4.046   4.401 -0.7184 -0.9161  0.2014
   29PEO   H17220026   5.736   4.075   4.485  3.9832  1.2161 -3.6534
   29PEO   H17320027   5.642   4.137   4.348  0.6694 -0.4852  0.1249
   29PEO   O17420028   5.551   3.977   4.448  0.3243 -0.4413 -0.4694
   29PEO   H17520029   5.361   3.907   4.385 -1.7349 -0.5302 -3.1622
   29PEO   H17620030   5.461   3.987   4.258  1.4823  0.8564  1.8104
   29PEO   C17720031   5.433   3.988   4.364 -0.9836  0.1754  1.2172
   29PEO   C17820032   5.368   4.123   4.394  0.6606 -0.4764 -0.0275
   29PEO   H17920033   5.452   4.192   4.413  0.7427 -0.2446 -1.1685
   29PEO   H17A20034   5.301   4.156   4.314  0.3116  0.5365  0.6643
   29PEO   O17B20035   5.282   4.105   4.510  0.0553  0.3311  0.1204
   29PEO   H17C20036   5.270   4.313   4.545  0.6709 -1.1261 -1.0334
   29PEO   H17D20037   5.193   4.202   4.675  0.0503 -1.7502 -0.5684
   29PEO   C17E20038   5.215   4.220   4.569 -0.2314 -0.4455 -0.4126
   29PEO   C17F20039   5.080   4.226   4.495 -0.3027  0.5559  0.1788
   29PEO   H18020040   5.040   4.327   4.513  0.3779  0.8424  0.1175
   29PEO   H18120041   5.099   4.218   4.387  1.4803 -0.8289  0.5451
   29PEO   O18220042   4.996   4.131   4.551  0.5150  0.1837 -0.2197
   29PEO   H18320043   4.842   4.006   4.516 -1.8417  0.0622  0.4483
   29PEO   H18420044   4.871   4.122   4.382 -2.8951  1.0647  0.9109
   29PEO   C18520045   4.870   4.109   4.492  0.1084 -0.3316  0.8722
   29PEO   C18620046   4.758   4.194   4.542 -0.4835  0.7650  0.5472
   29PEO   H18720047   4.794   4.293   4.512 -0.6782  0.2203 -1.6290
   29PEO   H18820048   4.663   4.177   4.490  0.7994 -2.5718 -0.9949
   29PEO   O18920049   4.750   4.186   4.681  0.1220 -0.2840  0.0180
   29PEO   H18A20050   4.656   4.230   4.863 -1.2703  2.4903  0.4554
   29PEO   H18B20051   4.546   4.219   4.731 -2.6460  2.0402  2.2890
   29PEO   C18C20052   4.648   4.253   4.756 -1.1116 -0.2726 -0.2306
   29PEO   C18D20053   4.650   4.406   4.743  0.3515 -0.2270  0.3058
   29PEO   H18E20054   4.590   4.439   4.829 -1.6152 -1.1476 -0.6290
   29PEO   H18F20055   4.752   4.445   4.733  0.2798 -0.4747 -2.0804
   29PEO   O19020056   4.584   4.443   4.612  0.3958 -0.1328  0.2620
   29PEO   H19120057   4.650   4.648   4.628 -1.0901  1.8472 -0.1038
   29PEO   H19220058   4.473   4.623   4.621  1.7148  3.2890 -0.5267
   29PEO   C19320059   4.571   4.585   4.586  0.6062 -0.5224  0.0356
   29PEO   C19420060   4.555   4.606   4.437 -0.0690 -0.6315 -0.0136
   29PEO   H19520061   4.468   4.542   4.419 -0.4959 -0.7806  2.3134
   29PEO   H19620062   4.526   4.710   4.415  1.4189  0.0852  1.2417
   29PEO   O19720063   4.671   4.566   4.367 -0.9028 -0.2429 -0.2406
   29PEO   H19820064   4.835   4.613   4.255  0.3959  3.2783 -0.9597
   29PEO   H19920065   4.780   4.746   4.349 -0.1747  0.0439  0.8804
   29PEO   C19A20066   4.743   4.661   4.290 -0.6451  0.2235  0.9139
   29PEO   C19B20067   4.664   4.701   4.162  0.4665 -0.8111  0.4611
   29PEO   H19C20068   4.735   4.741   4.088 -1.8225  0.5622 -1.1000
   29PEO   H19D20069   4.607   4.620   4.114  0.9651  0.1145 -1.8222
   29PEO   O19E20070   4.570   4.809   4.185  0.8950 -0.0491 -0.7244
   29PEO   H19F20071   4.597   4.876   3.989  2.3875 -0.6990  0.9294
   29PEO   H1A020072   4.487   4.972   4.099 -0.5102 -0.9976  0.8104
   29PEO   C1A120073   4.518   4.872   4.066  1.4026 -0.1793 -0.0262
   29PEO   C1A220074   4.399   4.783   4.018 -0.4270 -0.0490  0.2234
   29PEO   H1A320075   4.377   4.797   3.911  0.5984 -0.8250 -0.1080
   29PEO   H1A420076   4.422   4.676   4.027 -2.4308 -0.4826  0.6597
   29PEO   O1A520077   4.283   4.816   4.093 -0.9548  0.9798  0.0910
   29PEO   H1A620078   4.092   4.779   4.150 -0.2049 -1.4817  2.6206
   29PEO   H1A720079   4.183   4.639   4.170 -0.8575  1.1712  1.3494
   29PEO   C1A820080   4.172   4.723   4.099  0.0493  0.6048  0.5082
   29PEO   C1A920081   4.132   4.677   3.963  0.0236  0.7298  0.2311
   29PEO   H1AA20082   4.028   4.642   3.972  0.4184  0.0455  3.3571
   29PEO   H1AB20083   4.143   4.745   3.877 -0.6324  0.3343 -0.1743
   29PEO   O1AC20084   4.208   4.560   3.926 -1.0101  0.1692 -0.1624
   29PEO   H1AD20085   4.052   4.504   3.822 -0.3938 -3.0704 -0.5056
   29PEO   H1AE20086   4.184   4.380   3.842 -0.5799 -0.5154  1.2351
   29PEO   C1AF20087   4.161   4.486   3.821  0.0665 -0.6723 -0.4077
   29PEO   C1B020088   4.242   4.526   3.698 -0.3532  0.6719 -0.4356
   29PEO   H1B120089   4.328   4.592   3.715  1.9191 -1.7827 -1.5914
   29PEO   H1B220090   4.276   4.443   3.634 -0.4984  1.5991 -1.7769
   29PEO   O1B320091   4.154   4.591   3.615 -0.1557 -0.0705  0.7120
   29PEO   H1B420092   4.275   4.580   3.456  0.9421 -1.1619  2.5287
   29PEO   H1B520093   4.273   4.737   3.548 -0.5872 -0.3126 -1.1426
   29PEO   C1B620094   4.212   4.654   3.508 -0.8112 -0.6592 -0.1062
   29PEO   C1B720095   4.107   4.717   3.419  0.6454  0.2040  0.4468
   29PEO   H1B820096   4.007   4.714   3.466  0.6721 -0.3319  0.4772
   29PEO   H1B920097   4.143   4.818   3.396 -0.7150  0.2432 -1.8939
   29PEO   O1BA20098   4.103   4.638   3.298  0.7942 -0.4025  0.1600
   29PEO   H1BB20099   3.954   4.766   3.214  0.6574 -0.3838  0.0094
   29PEO   H1BC20100   3.895   4.614   3.282 -1.0996 -2.2894 -2.5361
   29PEO   C1BD20101   3.977   4.658   3.223  0.0273 -0.5095  0.1818
   29PEO   C1BE20102   4.008   4.604   3.084  0.6580 -0.6954  0.1185
   29PEO   H1BF20103   4.046   4.501   3.095  0.6315 -0.8224 -0.9492
   29PEO   H1C020104   3.912   4.595   3.032  0.7886  1.5308 -0.6121
   29PEO   O1C120105   4.108   4.674   3.017  0.1772 -0.2110 -0.5144
   29PEO   H1C220106   4.105   4.537   2.860  0.2166 -0.8394  1.5326
   29PEO   H1C320107   4.248   4.529   2.959  0.5792  0.2034  1.4876
   29PEO   C1C420108   4.178   4.600   2.912  0.6034 -0.4065  0.4877
   29PEO   C1C520109   4.246   4.695   2.822 -0.4217 -0.0975 -0.2151
   29PEO   H1C620110   4.262   4.787   2.881 -0.1720  0.9519 -1.8384
   29PEO   H1C720111   4.341   4.645   2.798  0.2820  1.4097 -0.7473
   29PEO   O1C820112   4.167   4.727   2.709  0.2810  0.7251  0.3536
   29PEO   H1C920113   4.335   4.763   2.585 -0.4560 -0.7276  0.4616
   29PEO   H1CA20114   4.248   4.906   2.648 -4.2565  0.7772  0.3229
   29PEO   C1CB20115   4.236   4.806   2.604 -0.1601  0.5417 -0.7138
   29PEO   C1CC20116   4.136   4.817   2.488 -0.0230 -0.2816  0.4808
   29PEO   H1CD20117   4.203   4.859   2.411  0.9249  2.1772  2.4766
   29PEO   H1CE20118   4.086   4.721   2.470 -1.1438  0.1309  1.2972
   29PEO   O1CF20119   4.041   4.921   2.523  0.2743 -0.8053  0.3109
   29PEO   H1D020120   3.873   4.832   2.458 -0.0488 -0.4632 -0.5029
   29PEO   H1D120121   3.948   4.904   2.329 -1.5593  1.8768 -0.4730
   29PEO   C1D220122   3.925   4.926   2.435 -0.2574 -0.1388  0.2872
   29PEO   C1D320123   3.834   5.047   2.456  0.3997  0.2234  0.0667
   29PEO   H1D420124   3.729   5.022   2.439  1.1442 -1.1946 -3.2597
   29PEO   H1D520125   3.850   5.083   2.559 -0.5912  3.1870 -0.6999
   29PEO   O1D620126   3.876   5.137   2.359  0.1604  0.1713  0.0976
   29PEO   H1D720127   3.681   5.214   2.331  0.6387 -0.8108 -4.0657
   29PEO   H1D820128   3.812   5.285   2.238 -1.0335  1.4497  0.5945
   29PEO   C1D920129   3.787   5.244   2.337  0.3323 -0.0209  0.3701
   29PEO   C1DA20130   3.793   5.355   2.439 -0.1496  0.0545  0.2615
   29PEO   H1DB20131   3.894   5.399   2.438  0.0955 -0.4980  0.3506
   29PEO   H1DC20132   3.716   5.427   2.407  1.9362  1.5167 -1.8104
   29PEO   O1DD20133   3.769   5.301   2.564 -0.1466 -0.0661 -0.5735
   29PEO   H1DE20134   3.656   5.467   2.641  0.2581 -0.3741  0.3734
   29PEO   H1DF20135   3.826   5.480   2.667 -0.1161 -0.1215  3.5342
   29PEO   C1E020136   3.744   5.406   2.662  0.2453 -0.4648  0.1631
   29PEO   C1E120137   3.727   5.334   2.799 -0.2906  0.0083 -0.0350
   29PEO   H1E220138   3.657   5.392   2.861 -1.0180 -0.6914 -0.1982
   29PEO   H1E320139   3.690   5.234   2.776  0.5398 -0.2736 -0.1881
   29PEO   O1E420140   3.864   5.328   2.858  0.1457 -0.2682  0.7172
   29PEO   H1E520141   3.854   5.271   3.053 -1.1468  1.1824  0.4013
   29PEO   H1E620142   3.799   5.431   3.028  0.8508 -0.2275  1.8202
   29PEO   C1E720143   3.878   5.361   2.995  0.5878  0.3650 -0.1994
   29PEO   C1E820144   4.023   5.402   3.038 -0.5227 -0.0076 -0.2072
   29PEO   H1E920145   4.037   5.371   3.142 -1.4513  0.5033  0.0806
   29PEO   H1EA20146   4.092   5.345   2.974 -1.6302 -0.8405 -0.6998
   29PEO   O1EB20147   4.029   5.544   3.021 -0.0642 -0.1673  0.0147
   29PEO   H1EC20148   4.088   5.601   3.221  2.9407 -0.8700  0.0853
   29PEO   H1ED20149   4.085   5.728   3.110 -0.0672  0.9724 -0.3887
   29PEO   C1EE20150   4.113   5.622   3.116  0.0706  1.0109 -0.3576
   29PEO   C1EF20151   4.272   5.606   3.106  0.1355  0.5789  0.3059
   29PEO   H1F020152   4.308   5.591   3.004  2.1388  1.0830  0.8762
   29PEO   H1F120153   4.320   5.696   3.147  2.5341 -1.3054  1.9556
   29PEO   O1F220154   4.317   5.490   3.179  0.1646  0.1589 -0.0043
   29PEO   H1F320155   4.524   5.515   3.190  1.3688 -0.7521  1.1005
   29PEO   H1F420156   4.462   5.397   3.063  1.0889  0.6259  0.6586
   29PEO   C1F520157   4.448   5.440   3.163  0.3503  0.4109  0.6526
   29PEO   C1F620158   4.477   5.327   3.271 -0.0387  0.2136 -0.7392
   29PEO   H1F720159   4.395   5.254   3.275  0.6478 -0.4979  0.6926
   29PEO   H1F820160   4.573   5.285   3.238 -0.2825  1.1646 -2.8363
   29PEO   O1F920161   4.498   5.386   3.403  0.2717 -0.4516  0.6706
   29PEO   H1FA20162   4.559   5.383   3.599 -0.9515 -0.8819  0.3301
   29PEO   H1FB20163   4.651   5.275   3.484  0.3549 -1.0834  1.2626
   29PEO   C1FC20164   4.553   5.313   3.514  0.1555 -0.3394 -0.2170
   29PEO   C1FD20165   4.458   5.205   3.562 -0.3676 -0.0246 -0.5839
   29PEO   H1FE20166   4.409   5.163   3.473 -0.8154  0.8699 -0.7747
   29PEO   H1FF20167   4.526   5.138   3.617  0.1772  1.9979  1.3757
   29PEO   O20020168   4.371   5.262   3.662 -0.1653  0.2416  0.4394
   29PEO   H20120169   4.182   5.218   3.580 -1.5969  2.0405 -0.3312
   29PEO   H20220170   4.262   5.354   3.505  0.2240 -2.1908 -1.2732
   29PEO   C20320171   4.243   5.306   3.602 -0.5751  1.1704  0.3825
   29PEO   C20420172   4.156   5.384   3.691 -0.1044 -0.2226  0.0035
   29PEO   H20520173   4.053   5.393   3.654  0.0055 -1.6811 -0.7432
   29PEO   H20620174   4.136   5.327   3.783 -1.4984 -1.1300 -0.8403
   29PEO   O20720175   4.221   5.510   3.717 -0.5740  0.1488  0.1214
   29PEO   H20820176   4.231   5.648   3.872  0.3695 -0.7342  0.4299
   29PEO   H20920177   4.090   5.541   3.871 -1.4192  1.3770 -0.0727
   29PEO   C20A20178   4.158   5.599   3.806  0.5457 -0.5940  0.1258
   29PEO   C20B20179   4.079   5.703   3.725 -0.3881 -0.4556  0.6914
   29PEO   H20C20180   4.016   5.772   3.784 -3.0006 -0.2828 -2.0620
   29PEO   H20D20181   4.149   5.763   3.664 -2.8005  0.6998 -1.1202
   29PEO   O20E20182   3.988   5.631   3.645  0.1870  0.2325  0.5681
   29PEO   H20F20183   4.109   5.611   3.469  0.3490  1.2447  0.1655
   29PEO   H21020184   4.009   5.753   3.475  1.1668 -0.5018 -0.2977
   29PEO   C21120185   4.010   5.646   3.502 -0.0533 -0.2915  0.6848
   29PEO   C21220186   3.891   5.569   3.427 -1.0063  0.1632 -0.1868
   29PEO   H21320187   3.801   5.579   3.490  0.1485 -1.6964  1.9052
   29PEO   H21420188   3.871   5.609   3.327  0.5813 -0.5545 -0.8256
   29PEO   O21520189   3.920   5.425   3.424  0.1921  0.1992 -0.2246
   29PEO   H21620190   3.809   5.379   3.265 -1.0673 -0.3735 -0.2442
   29PEO   H21720191   3.725   5.376   3.427 -1.4264 -0.1885 -0.9676
   29PEO   C21820192   3.814   5.346   3.370 -0.8548 -0.0648 -0.1550
   29PEO   C21920193   3.848   5.197   3.383 -0.2866  0.2145  0.1024
   29PEO   H21A20194   3.894   5.181   3.482 -0.7881  1.3965  0.5365
   29PEO   H21B20195   3.759   5.133   3.380  0.1360 -0.4586  1.0015
   29PEO   O21C20196   3.929   5.173   3.277 -0.0461 -0.3891  0.4144
   29PEO   H21D20197   3.867   4.978   3.264 -0.0647 -0.8303  1.5069
   29PEO   H21E20198   4.021   5.017   3.348 -0.0592  0.1614  0.1074
   29PEO   C21F20199   3.960   5.038   3.260 -0.6044 -0.0533  0.4320
   29PEO   C22020200   4.033   5.026   3.124 -0.8555  0.5443 -0.3966
   29PEO   H22120201   4.107   5.106   3.111  0.0879 -0.5597 -2.3142
   29PEO   H22220202   4.094   4.934   3.120 -1.4835 -0.0658  2.3027
   29PEO   O22320203   3.942   5.025   3.014  0.4507  0.0250  0.4563
   29PEO   H22420204   3.910   4.973   2.807  0.8461 -1.5086 -1.1072
   29PEO   H22520205   4.014   4.871   2.894 -2.0057 -0.4460  0.8108
   29PEO   C22620206   3.986   4.977   2.886 -0.3335 -0.0290  0.0102
   29PEO   C22720207   4.097   5.061   2.836  0.3278  0.1012 -0.2911
   29PEO   H22820208   4.125   5.040   2.731  1.2578 -0.6474  0.0939
   29PEO   H22920209   4.067   5.167   2.842  0.6050  0.2468 -1.2933
   29PEO   O22A20210   4.218   5.040   2.918  0.4699 -0.2801  0.3875
   29PEO   H22B20211   4.309   5.238   2.922  2.7886  1.1497 -1.0964
   29PEO   H22C20212   4.321   5.158   2.776 -1.6082 -3.2100 -0.7039
   29PEO   C22D20213   4.321   5.136   2.883 -0.0709  0.2543  0.1558
   29PEO   C22E20214   4.450   5.094   2.946 -0.0382 -0.6309  0.2140
   29PEO   H22F20215   4.529   5.168   2.929 -0.1198 -0.8156 -1.0375
   29PEO   H23020216   4.426   5.092   3.053 -1.0198  5.3158  0.4312
   29PEO   O23120217   4.474   4.960   2.888 -0.4483 -0.1099 -0.4813
   29PEO   H23220218   4.584   4.880   3.036 -0.9718 -3.8112 -0.6087
   29PEO   H23320219   4.680   4.970   2.931 -1.5283  1.0171  1.5897
   29PEO   C23420220   4.594   4.901   2.928 -0.5239 -0.2353 -0.0112
   29PEO   C23520221   4.621   4.775   2.852 -0.6285  0.2855 -0.0766
   29PEO   H23620222   4.718   4.729   2.878 -1.0063 -0.0137  0.8739
   29PEO   H23720223   4.534   4.707   2.857  0.3903 -0.9957  1.3867
   29PEO   O23820224   4.623   4.835   2.720 -0.1650 -0.0214  0.3908
   29PEO   H23920225   4.666   4.672   2.606  4.7541 -1.1037 -0.0006
   29PEO   H23A20226   4.809   4.765   2.656  0.5985  0.5090 -2.8028
   29PEO   C23B20227   4.705   4.774   2.621 -0.4822  1.1365  0.2564
   29PEO   C23C20228   4.696   4.850   2.483 -0.0282 -0.6024  0.1661
   29PEO   H23D20229   4.707   4.957   2.504 -1.3279 -0.5230  0.5303
   29PEO   H23E20230   4.778   4.815   2.419 -0.6143  0.5000 -1.2223
   29PEO   O23F20231   4.579   4.816   2.415  0.4478 -0.1356 -0.2271
   29PEO   H24020232   4.654   4.817   2.216 -1.1182 -2.5880  0.4095
   29PEO   H24120233   4.568   4.974   2.266 -4.0381 -0.3795 -2.0369
   29PEO   C24220234   4.574   4.865   2.274  0.0569 -0.1949  0.1950
   29PEO   C24320235   4.443   4.805   2.210  0.6090  0.2550  0.2263
   29PEO   H24420236   4.359   4.829   2.277  0.0164 -0.9600 -0.0430
   29PEO   H24520237   4.397   4.861   2.128 -1.9302 -0.4378  1.0818
   29PEO   O24620238   4.455   4.666   2.184 -0.4567  0.9012 -0.2861
   29PEO   H24720239   4.571   4.713   2.029 -0.1961 -0.4266 -0.9945
   29PEO   H24820240   4.402   4.672   1.983  0.3514  4.6022  1.2417
   29PEO   C24920241   4.488   4.643   2.046 -0.1176 -0.2831  0.0350
   29PEO   C24A20242   4.526   4.498   2.020  0.0489 -0.2787  0.0127
   29PEO   H24B20243   4.568   4.489   1.919  1.9484 -0.3387  0.7643
   29PEO   H24C20244   4.604   4.466   2.091  1.7804 -0.6013 -1.9291
   29PEO   O24D20245   4.407   4.410   2.027 -0.1877 -0.7487  0.1392
   29PEO   H24E20246   4.345   4.321   2.217  0.6269  2.9436 -0.1697
   29PEO   H24F20247   4.479   4.226   2.141 -0.2776 -0.8490 -3.1794
   29PEO   C25020248   4.394   4.293   2.122 -0.4206  0.0478  0.0576
   29PEO   C25120249   4.289   4.206   2.048 -0.7243 -0.7676 -0.1461
   29PEO   H25220250   4.214   4.171   2.121  1.2685 -2.1234  1.3652
   29PEO   H25320251   4.242   4.269   1.971  1.2670  1.0122 -0.0006
   29PEO   O25420252   4.362   4.096   1.983  0.6248  0.4012  0.4791
   29PEO   H25520253   4.203   3.971   1.954  0.9645  2.6708 -0.6388
   29PEO   H25620254   4.277   3.946   2.112  0.0357  0.1436  0.2611
   29PEO   C25720255   4.299   3.966   2.007  0.3357  0.6528  0.4165
   29PEO   C25820256   4.388   3.847   1.953  0.9562 -0.1888 -0.0454
   29PEO   H25920257   4.322   3.765   1.982  0.6070 -0.4219 -1.4131
   29PEO   H25A20258   4.386   3.837   1.843 -1.5783 -1.7601  0.0860
   29PEO   O25B20259   4.516   3.860   2.011  0.3808 -0.1595  0.0398
   29PEO   H25C20260   4.709   3.822   1.989 -0.8255  0.6248  0.7216
   29PEO   H25D20261   4.624   3.816   1.831  0.6195  4.2403  1.1280
   29PEO   C25E20262   4.616   3.792   1.938 -0.1506 -0.6923  0.2107
   29PEO   C25F20263   4.591   3.640   1.955  0.6277  0.4997 -0.5040
   29PEO   H26020264   4.682   3.587   1.922 -0.4818 -0.7242 -1.7609
   29PEO   H26120265   4.568   3.597   2.054 -1.1947  2.3536 -0.0438
   29PEO   O26220266   4.484   3.585   1.869  0.0858 -0.4760  0.0246
   29PEO   H26320267   4.499   3.410   1.981  2.0792  0.3977 -0.6398
   29PEO   H26420268   4.536   3.392   1.808  1.7956  0.6265  0.3870
   29PEO   C26520269   4.471   3.444   1.880  0.3081 -0.1510 -0.3515
   29PEO   C26620270   4.322   3.419   1.844  0.4893 -0.0611 -0.9688
   29PEO   H26720271   4.268   3.512   1.866  0.8324  0.5159 -2.4601
   29PEO   H26820272   4.314   3.392   1.738 -2.1512  2.7386 -1.6259
   29PEO   O26920273   4.270   3.304   1.922  0.3790 -0.8540 -0.1838
   29PEO   H26A20274   4.106   3.245   1.802 -0.4802  2.2426 -0.8937
   29PEO   H26B20275   4.074   3.371   1.929  1.4836 -0.2296  1.1570
   29PEO   C26C20276   4.128   3.278   1.905  0.3298 -0.6136 -0.0730
   29PEO   C26D20277   4.089   3.172   2.011  0.6371 -0.7343  0.6632
   29PEO   H26E20278   4.118   3.210   2.110 -1.2360 -1.9027  1.7115
   29PEO   H26F20279   3.979   3.161   2.011  0.6724 -1.2725 -0.4693
   29PEO   O27020280   4.143   3.043   1.985 -0.4462 -0.2200  0.0083
   29PEO   H27120281   4.328   3.101   2.061  0.0981 -0.2476 -0.3257
   29PEO   H27220282   4.325   3.050   1.888 -1.6251 -1.8480 -0.1643
   29PEO   C27320283   4.285   3.030   1.989 -0.2976 -0.9433  0.5765
   29PEO   C27420284   4.322   2.885   2.026 -0.4997 -0.0304  0.3718
   29PEO   H27520285   4.256   2.814   1.975 -1.8612  0.3212  1.6044
   29PEO   H27620286   4.426   2.882   1.988 -0.6656  1.9450 -0.3958
   29PEO   O27720287   4.327   2.861   2.165 -0.4281 -0.4750 -0.6963
   29PEO   H27820288   4.144   2.778   2.162 -1.4508  0.2614  1.9543
   29PEO   H27920289   4.148   2.948   2.220 -1.8867 -0.9452 -1.3998
   29PEO   C27A20290   4.202   2.852   2.220  0.5335  0.3143  0.0708
   29PEO   C27B20291   4.213   2.820   2.369  0.7579 -0.0848 -0.1439
   29PEO   H27C20292   4.115   2.804   2.416  0.6235  1.3631  0.1185
   29PEO   H27D20293   4.273   2.729   2.387 -0.8590 -0.6960  2.8091
   29PEO   O27E20294   4.274   2.933   2.437 -0.2342  0.0416  0.0040
   29PEO   H27F20295   4.121   2.933   2.570 -0.1313  1.3826  0.5335
   29PEO   H28020296   4.256   3.041   2.605  1.4336  0.3888 -2.1178
   29PEO   C28120297   4.230   2.939   2.573 -0.0313 -0.1969  0.6016
   29PEO   C28220298   4.304   2.825   2.650 -0.5830  0.7956 -0.2020
   29PEO   H28320299   4.401   2.809   2.600  0.0465  1.0285  0.8969
   29PEO   H28420300   4.326   2.849   2.755  1.3207  1.5457 -0.7219
   29PEO   O28520301   4.234   2.701   2.631  0.8611  0.3388 -0.6608
   29PEO   H28620302   4.220   2.510   2.728 -0.9395  1.3093 -0.1088
   29PEO   H28720303   4.346   2.624   2.777  0.7245  2.3305 -1.5485
   29PEO   C28820304   4.292   2.584   2.690  0.0174  0.3114 -0.2614
   29PEO   C28920305   4.394   2.506   2.598  0.5520 -0.6509 -0.0700
   29PEO   H28A20306   4.489   2.561   2.607  0.5643 -0.9819  4.2404
   29PEO   H28B20307   4.431   2.409   2.636  1.4657 -0.7351 -1.1265
   29PEO   O28C20308   4.342   2.507   2.462  0.0374 -0.2877  0.1162
   29PEO   H28D20309   4.144   2.435   2.459 -0.0866 -1.3705  0.4007
   29PEO   H28E20310   4.281   2.314   2.477 -0.5174 -1.2466 -1.3377
   29PEO   C28F20311   4.245   2.406   2.428  0.4205  0.1830  0.5372
   29PEO   C29020312   4.256   2.403   2.271 -0.0737  0.7839 -0.2360
   29PEO   H29120313   4.357   2.431   2.237  0.0502  0.3528 -0.2309
   29PEO   H29220314   4.233   2.300   2.242  3.0725  0.0887 -0.7090
   29PEO   O29320315   4.157   2.484   2.210 -0.4161  0.1251  0.0318
   29PEO   H29420316   4.117   2.355   2.053  0.8933 -1.1366 -1.5167
   29PEO   H29520317   4.232   2.494   2.009 -0.7107  1.2511  0.3968
   29PEO   C29620318   4.140   2.462   2.061 -0.2419 -0.9626 -0.0323
   29PEO   C29720319   4.011   2.535   1.996  0.4552 -0.1248  0.1422
   29PEO   H29820320   4.009   2.641   2.026  0.0214  0.2308 -1.1098
   29PEO   H29920321   4.004   2.527   1.887 -2.4296 -1.9709  0.3547
   29PEO   O29A20322   3.895   2.456   2.030 -0.6070  0.1327  0.3678
   29PEO   H29B20323   3.813   2.464   1.836  1.1978  0.8735 -0.0239
   29PEO   H29C20324   3.722   2.553   1.968  0.6914  0.3006 -0.9562
   29PEO   C29D20325   3.782   2.464   1.941  1.2801  0.3876  0.0049
   29PEO   C29E20326   3.692   2.336   1.957 -0.1951 -0.2871  0.7822
   29PEO   H29F20327   3.650   2.312   1.858  0.5808 -2.4288  0.9330
   29PEO   H2A020328   3.760   2.252   1.978  2.0779  0.3389 -3.0962
   29PEO   O2A120329   3.593   2.355   2.063 -0.2711 -0.0779 -0.3306
   29PEO   H2A220330   3.727   2.415   2.218  0.6095 -0.5103 -1.3298
   29PEO   H2A320331   3.661   2.249   2.229 -2.8481 -0.7755  0.1712
   29PEO   C2A420332   3.638   2.353   2.201  0.1033 -0.1330 -0.2058
   29PEO   C2A520333   3.515   2.394   2.282 -0.7775 -0.7267  0.7495
   29PEO   H2A620334   3.548   2.420   2.384  0.5665  0.8095 -0.0323
   29PEO   H2A720335   3.459   2.478   2.238 -1.6482 -2.8762 -2.6377
   29PEO   O2A820336   3.421   2.286   2.304 -0.6496  0.1640 -0.5836
   29PEO   H2A920337   3.323   2.390   2.453 -2.8366  0.5212  0.1596
   29PEO   H2AA20338   3.260   2.230   2.418 -0.5491  0.2639 -0.2297
   29PEO   C2AB20339   3.297   2.321   2.370  0.9413 -0.4070 -0.4165
   29PEO   C2AC20340   3.190   2.387   2.284 -0.2895 -0.7112 -0.2780
   29PEO   H2AD20341   3.121   2.450   2.341 -0.9877 -0.2915 -1.5557
   29PEO   H2AE20342   3.240   2.440   2.201 -1.3101 -0.1799 -0.5602
   29PEO   O2AF20343   3.108   2.283   2.218 -0.1845  0.3389 -0.4548
   29PEO   H2B020344   3.063   2.312   2.019  1.2581 -1.4261  0.0141
   29PEO   H2B120345   3.022   2.447   2.125 -2.3552  0.4556  0.2468
   29PEO   C2B220346   3.025   2.337   2.119 -0.2994  0.5288 -0.9786
   29PEO   C2B320347   2.874   2.301   2.130 -0.1906 -0.1840 -0.5044
   29PEO   H2B420348   2.811   2.364   2.065 -2.8624  0.3068  2.3163
   29PEO   H2B520349   2.858   2.195   2.105 -0.3499 -0.0997 -0.7641
   29PEO   O2B620350   2.825   2.321   2.268 -0.1798 -0.3904  0.3681
   29PEO   H2B720351   2.892   2.520   2.266  0.2242 -0.3181 -1.4148
   29PEO   H2B820352   2.852   2.456   2.424 -3.2301  0.9816  0.4713
   29PEO   C2B920353   2.822   2.453   2.318  0.3666  0.1011 -0.6587
   29PEO   C2BA20354   2.675   2.500   2.313  0.1886  0.2991  0.0391
   29PEO   H2BB20355   2.599   2.427   2.347  0.9363 -0.1332  0.8141
   29PEO   H2BC20356   2.662   2.577   2.390 -0.0741 -1.1161  1.4737
   29PEO   O2BD20357   2.656   2.541   2.176 -0.0701 -0.1462 -0.7938
   29PEO   H2BE20358   2.568   2.582   2.178 -0.6661 -1.1084 -3.3910
   30PEO   H00120359   2.874   4.511   4.391 -1.1253 -0.9242  0.3113
   30PEO   H00220360   2.849   4.568   4.563 -0.6795 -0.4543 -0.4963
   30PEO   H00320361   3.006   4.515   4.517  1.0011 -0.8507 -0.8738
   30PEO   C00420362   2.900   4.497   4.497  0.6655 -0.0063  0.0288
   30PEO   C00520363   2.849   4.356   4.543 -0.1914  0.0051 -0.2780
   30PEO   H00620364   2.742   4.352   4.518  0.2319  1.0752 -2.4730
   30PEO   H00720365   2.908   4.279   4.491  1.3783  0.5465  0.6239
   30PEO   O00820366   2.867   4.342   4.681 -0.1947 -0.3416 -0.3688
   30PEO   H00920367   2.867   4.232   4.851  0.1675 -0.0163  0.2654
   30PEO   H00A20368   2.908   4.133   4.708  1.8634  1.1662  1.6507
   30PEO   C00B20369   2.844   4.214   4.745  0.3100  0.6969  0.1081
   30PEO   C00C20370   2.696   4.177   4.736  1.2144  0.5706  0.2821
   30PEO   H00D20371   2.682   4.098   4.812  2.3079 -1.3439 -1.4088
   30PEO   H00E20372   2.633   4.261   4.769  0.5572  1.1921 -2.3064
   30PEO   O00F20373   2.654   4.128   4.599  0.4166 -0.4286  0.3823
   30PEO   H01020374   2.632   3.921   4.639  1.2971  1.0344  0.2397
   30PEO   H01120375   2.534   3.976   4.504  3.4821 -2.0843 -2.0435
   30PEO   C01220376   2.572   4.006   4.603 -0.1592 -0.4405 -0.9476
   30PEO   C01320377   2.439   4.029   4.680  0.3718  0.2244 -0.1667
   30PEO   H01420378   2.392   3.930   4.678 -2.4504  1.4322  0.7204
   30PEO   H01520379   2.465   4.053   4.784  0.2593 -1.3641  0.2495
   30PEO   O01620380   2.340   4.126   4.618 -0.6073 -0.3786 -0.5517
   30PEO   H01720381   2.218   4.188   4.782  1.2507  3.1836 -1.2245
   30PEO   H01820382   2.176   4.029   4.695 -1.0904  0.8680 -0.4414
   30PEO   C01920383   2.213   4.132   4.687  0.4980  0.3916  0.3508
   30PEO   C01A20384   2.119   4.218   4.600 -0.1786  0.1002 -0.3249
   30PEO   H01B20385   2.154   4.202   4.497 -1.1830 -0.2655 -0.6171
   30PEO   H01C20386   2.012   4.201   4.617 -0.0324 -2.7009 -1.6607
   30PEO   O01D20387   2.156   4.356   4.625 -0.9013 -0.1137  0.4545
   30PEO   H01E20388   2.142   4.413   4.419 -1.3786 -2.7097 -0.2350
   30PEO   H01F20389   2.160   4.543   4.541 -2.4232  1.3059 -2.0002
   30PEO   C02020390   2.113   4.446   4.520  0.0392 -0.2852 -0.5395
   30PEO   C02120391   1.964   4.455   4.499  0.0642  1.1214  0.6700
   30PEO   H02220392   1.949   4.425   4.394  0.2079  2.4121  0.2656
   30PEO   H02320393   1.909   4.382   4.560  1.3080  0.1891  0.7026
   30PEO   O02420394   1.912   4.591   4.523  0.6554 -1.0910  0.0624
   30PEO   H02520395   1.744   4.615   4.399  1.6936 -0.2910 -0.1984
   30PEO   H02620396   1.757   4.726   4.539  3.1005 -0.3628  1.0195
   30PEO   C02720397   1.770   4.622   4.506  0.6591 -0.4416  0.0838
   30PEO   C02820398   1.669   4.539   4.589  0.4759 -0.5359  0.5044
   30PEO   H02920399   1.686   4.543   4.697  1.1309  2.0357  0.3774
   30PEO   H02A20400   1.566   4.575   4.570  0.7174  1.1451  2.0939
   30PEO   O02B20401   1.669   4.406   4.554 -0.8479 -0.0291  0.0177
   30PEO   H02C20402   1.477   4.379   4.620 -0.0508 -0.6243 -0.7722
   30PEO   H02D20403   1.608   4.305   4.722  1.5190  0.8360 -0.3737
   30PEO   C02E20404   1.572   4.324   4.620  0.2644 -0.0962 -0.1202
   30PEO   C02F20405   1.549   4.198   4.529  0.6984  0.1283 -0.1119
   30PEO   H03020406   1.448   4.156   4.538  0.5892  0.2752 -0.5920
   30PEO   H03120407   1.546   4.238   4.426 -1.3452  3.3258  1.0378
   30PEO   O03220408   1.653   4.098   4.525  0.3374 -0.4464 -0.4895
   30PEO   H03320409   1.593   3.958   4.692  0.5927 -0.2663 -1.3446
   30PEO   H03420410   1.703   4.079   4.741 -1.9321 -0.0136  0.5341
   30PEO   C03520411   1.674   4.020   4.652  0.1830  0.6905 -0.7082
   30PEO   C03620412   1.799   3.934   4.626 -0.2135  0.2906 -0.3021
   30PEO   H03720413   1.877   4.007   4.599 -2.0490  2.3246 -0.3665
   30PEO   H03820414   1.831   3.889   4.721  0.5836  0.3842 -0.5207
   30PEO   O03920415   1.781   3.843   4.516 -0.4745  0.7008  0.3047
   30PEO   H03A20416   1.910   3.934   4.365  0.1765 -0.6571 -4.1566
   30PEO   H03B20417   1.736   3.965   4.366 -2.4922 -1.2506  2.1580
   30PEO   C03C20418   1.812   3.887   4.383  0.1383  0.6706  0.1058
   30PEO   C03D20419   1.798   3.765   4.296  0.0503 -0.5234  0.2119
   30PEO   H03E20420   1.700   3.725   4.323 -0.8993  0.9160 -0.9585
   30PEO   H03F20421   1.804   3.794   4.190 -0.8241 -0.5165  0.1576
   30PEO   O04020422   1.916   3.679   4.314 -0.1161 -0.3172  0.4073
   30PEO   H04120423   1.894   3.520   4.182 -1.4973 -0.3224  0.6350
   30PEO   H04220424   1.782   3.515   4.318  1.1654  2.0120  4.1138
   30PEO   C04320425   1.882   3.549   4.287  0.5760  1.0002  0.5649
   30PEO   C04420426   1.983   3.446   4.348  0.5634 -0.0011  0.2883
   30PEO   H04520427   1.964   3.345   4.306  1.5589 -1.0746  2.2960
   30PEO   H04620428   2.087   3.457   4.311  0.4900 -0.1691  0.0232
   30PEO   O04720429   1.969   3.448   4.485 -0.8907  0.1358 -0.2725
   30PEO   H04820430   2.036   3.379   4.670  1.1110  0.6079  0.3221
   30PEO   H04920431   2.164   3.439   4.569 -1.8458  1.8193  0.2990
   30PEO   C04A20432   2.071   3.380   4.566 -0.6205 -0.1853 -0.3122
   30PEO   C04B20433   2.113   3.244   4.508  0.3030 -0.0690 -1.2150
   30PEO   H04C20434   2.157   3.181   4.587  2.2782  0.4507 -1.8607
   30PEO   H04D20435   2.022   3.193   4.473  1.2202 -3.3701  0.7182
   30PEO   O04E20436   2.219   3.254   4.414 -0.0388 -0.7625  0.1200
   30PEO   H04F20437   2.194   3.051   4.343  1.3747 -1.2936  0.7621
   30PEO   H05020438   2.358   3.105   4.388  0.1839  1.0975 -2.2590
   30PEO   C05120439   2.263   3.136   4.342 -0.7398  0.5276 -0.8155
   30PEO   C05220440   2.294   3.172   4.196 -0.2806 -0.3474 -0.1699
   30PEO   H05320441   2.346   3.268   4.212 -0.4225 -0.4281  0.8639
   30PEO   H05420442   2.368   3.104   4.152 -0.1234 -0.9902  1.0300
   30PEO   O05520443   2.182   3.177   4.113 -0.1644 -0.4220  0.2649
   30PEO   H05620444   2.293   3.286   3.970 -1.2333  0.2818 -2.0629
   30PEO   H05720445   2.120   3.244   3.934 -1.6181 -2.1859  1.9719
   30PEO   C05820446   2.215   3.209   3.975 -0.0478 -0.8675 -0.3110
   30PEO   C05920447   2.276   3.091   3.896  1.1363 -0.4302  1.7132
   30PEO   H05A20448   2.281   3.119   3.790 -1.1740 -2.8670  0.8541
   30PEO   H05B20449   2.378   3.071   3.932  2.3446  0.8725 -0.7482
   30PEO   O05C20450   2.185   2.978   3.914  0.0830 -0.0253 -0.0009
   30PEO   H05D20451   2.157   2.937   3.713  3.7250 -0.8938 -1.4618
   30PEO   H05E20452   2.108   2.810   3.822 -1.1959  0.2073 -0.3338
   30PEO   C05F20453   2.187   2.885   3.805 -0.7868  0.0740  0.8640
   30PEO   C06020454   2.324   2.816   3.792 -0.3972 -0.5149  0.3069
   30PEO   H06120455   2.375   2.810   3.889 -1.0319  1.5568  0.8368
   30PEO   H06220456   2.308   2.720   3.741  2.4657 -1.1380  0.4403
   30PEO   O06320457   2.405   2.902   3.707  0.2781 -0.3349 -0.3684
   30PEO   H06420458   2.590   2.936   3.621 -1.4340  0.7293 -0.5957
   30PEO   H06520459   2.557   2.766   3.695 -0.7588 -0.1782  0.4802
   30PEO   C06620460   2.543   2.875   3.699  0.1398 -0.0236 -0.1982
   30PEO   C06720461   2.606   2.930   3.828 -0.3359  0.2901  0.1098
   30PEO   H06820462   2.569   2.871   3.913  1.2419 -1.0962 -0.1068
   30PEO   H06920463   2.715   2.919   3.818 -0.4372 -0.4441 -0.3364
   30PEO   O06A20464   2.580   3.064   3.834  0.3314 -0.7947  0.0844
   30PEO   H06B20465   2.776   3.126   3.885 -0.3698 -0.4534 -0.2375
   30PEO   H06C20466   2.659   3.145   4.017  1.5280  2.8072  0.0397
   30PEO   C06D20467   2.671   3.148   3.907 -0.3417 -0.2087 -0.3505
   30PEO   C06E20468   2.635   3.291   3.875  0.0323 -0.3788  0.2326
   30PEO   H06F20469   2.729   3.347   3.890  0.8702 -1.0913 -1.8914
   30PEO   H07020470   2.603   3.305   3.771 -1.2999  3.5440  1.0100
   30PEO   O07120471   2.544   3.349   3.975  0.0980 -0.1924  0.0002
   30PEO   H07220472   2.523   3.534   3.876  2.8864  0.4807 -1.1614
   30PEO   H07320473   2.643   3.539   4.003  1.5285 -0.9983 -2.5661
   30PEO   C07420474   2.546   3.495   3.976  0.7429 -0.3371 -0.9448
   30PEO   C07520475   2.435   3.542   4.072  0.3284  0.6250 -0.0180
   30PEO   H07620476   2.421   3.463   4.146  0.0857 -0.8760 -1.6042
   30PEO   H07720477   2.487   3.623   4.125  3.5344 -2.8082  2.5734
   30PEO   O07820478   2.319   3.583   3.988  0.0377 -0.0402  0.2368
   30PEO   H07920479   2.229   3.691   4.129 -0.8313  1.3168 -1.7603
   30PEO   H07A20480   2.184   3.522   4.140  0.0225 -0.2710  1.0465
   30PEO   C07B20481   2.202   3.603   4.069 -0.0850 -0.6442  0.5923
   30PEO   C07C20482   2.077   3.623   3.980 -0.0375  0.8325 -0.1100
   30PEO   H07D20483   2.003   3.684   4.033 -0.6148  2.1511 -2.3033
   30PEO   H07E20484   2.112   3.684   3.895  0.0771  1.8508  0.6587
   30PEO   O07F20485   2.018   3.493   3.943  0.1829 -0.1166 -0.4426
   30PEO   H08020486   1.888   3.583   3.812 -1.7393  0.0951 -0.6072
   30PEO   H08120487   1.823   3.544   3.979  2.2567  0.2872  2.3017
   30PEO   C08220488   1.883   3.509   3.894 -0.6001  0.6643  0.0076
   30PEO   C08320489   1.833   3.363   3.851 -0.1487 -0.0523  0.0755
   30PEO   H08420490   1.752   3.371   3.778 -1.0919 -1.0954  0.9823
   30PEO   H08520491   1.919   3.310   3.806  0.8218  2.2332 -0.9702
   30PEO   O08620492   1.784   3.290   3.972  0.0517  0.0312  0.0724
   30PEO   H08720493   1.824   3.206   4.162  1.1814 -1.0472  0.6781
   30PEO   H08820494   1.964   3.281   4.085  1.6386 -3.2058  1.3159
   30PEO   C08920495   1.872   3.224   4.064 -0.1198 -0.1384  0.1839
   30PEO   C08A20496   1.909   3.082   4.011  0.2612 -0.0908  0.6245
   30PEO   H08B20497   1.967   3.085   3.918 -1.6145 -1.1905 -0.6566
   30PEO   H08C20498   1.976   3.043   4.088  2.0948 -0.3309 -1.0278
   30PEO   O08D20499   1.790   3.010   3.997  0.2784  0.2086  0.1907
   30PEO   H08E20500   1.835   2.842   3.884 -0.2661  0.1703  0.6739
   30PEO   H08F20501   1.827   2.988   3.780 -0.9731  2.7322  0.8358
   30PEO   C09020502   1.787   2.939   3.869  0.1815  0.3142  0.1071
   30PEO   C09120503   1.637   2.914   3.835 -0.7236  0.2317  0.0960
   30PEO   H09220504   1.583   3.007   3.860 -1.5898  0.1855 -1.4512
   30PEO   H09320505   1.641   2.897   3.726  2.3271  0.5475  0.0840
   30PEO   O09420506   1.596   2.809   3.917 -0.7446  0.1500  0.0488
   30PEO   H09520507   1.386   2.834   3.914  0.2488  0.5864 -2.8691
   30PEO   H09620508   1.446   2.675   3.970 -1.0171  0.8898  0.3068
   30PEO   C09720509   1.465   2.759   3.902  0.2951  0.1441 -0.2715
   30PEO   C09820510   1.459   2.694   3.762  0.0124  0.5972  0.1879
   30PEO   H09920511   1.547   2.709   3.698 -0.9692 -0.3540 -1.4511
   30PEO   H09A20512   1.450   2.586   3.776  1.2737  0.4810  0.2810
   30PEO   O09B20513   1.337   2.724   3.682  0.1765  0.7684 -0.2013
   30PEO   H09C20514   1.419   2.899   3.587  0.9500 -1.7178 -1.6843
   30PEO   H09D20515   1.310   2.916   3.734 -0.5878 -1.0057 -0.1260
   30PEO   C09E20516   1.327   2.865   3.638  0.4369  0.6963 -0.8901
   30PEO   C09F20517   1.211   2.882   3.540 -0.0292  0.5990 -0.4846
   30PEO   H0A020518   1.217   2.983   3.495 -1.6393 -0.4393 -3.3023
   30PEO   H0A120519   1.233   2.820   3.452  1.9495  2.5269 -1.4691
   30PEO   O0A220520   1.076   2.857   3.592 -0.0257  0.0609 -0.2662
   30PEO   H0A320521   0.965   2.839   3.407  1.3000 -0.5017 -0.5693
   30PEO   H0A420522   0.988   3.002   3.477 -0.6566 -0.3256 -0.0010
   30PEO   C0A520523   0.970   2.896   3.500  0.2724 -0.5885 -0.4506
   30PEO   C0A620524   0.840   2.869   3.584  0.2699  0.7256  0.1366
   30PEO   H0A720525   0.746   2.854   3.529 -0.8350  0.2365  2.0513
   30PEO   H0A820526   0.854   2.776   3.642 -2.9023 -0.0418 -0.1125
   30PEO   O0A920527   0.811   2.980   3.675  0.8177 -0.1238 -0.2737
   30PEO   H0AA20528   0.625   3.049   3.602 -0.0408  1.1496 -1.2178
   30PEO   H0AB20529   0.767   3.112   3.519  0.5318  1.1405  1.1056
   30PEO   C0AC20530   0.729   3.083   3.617 -0.0349  0.3669  0.6661
   30PEO   C0AD20531   0.728   3.191   3.723  0.3078  1.0926 -0.0740
   30PEO   H0AE20532   0.823   3.243   3.744  0.8531  1.1226 -2.3402
   30PEO   H0AF20533   0.654   3.261   3.680 -2.4093  0.0454  2.5347
   30PEO   O0B020534   0.666   3.144   3.848  0.6538  0.2695  1.0278
   30PEO   H0B120535   0.669   3.141   4.058 -1.3653  0.1864 -0.4987
   30PEO   H0B220536   0.763   3.276   3.992  0.6377  0.8358 -2.4825
   30PEO   C0B320537   0.735   3.171   3.975 -0.5634  0.6010  0.2678
   30PEO   C0B420538   0.871   3.090   3.965 -0.3178 -0.5593  0.3075
   30PEO   H0B520539   0.915   3.067   4.064  0.6380 -1.3540 -0.2767
   30PEO   H0B620540   0.839   2.995   3.918 -1.1671 -0.2678  0.2808
   30PEO   O0B720541   0.957   3.158   3.889  0.1794 -0.4149  0.5201
   30PEO   H0B820542   1.063   3.011   3.791 -0.3644 -0.6375  1.4582
   30PEO   H0B920543   1.130   3.039   3.948  2.0664 -0.2841 -1.5470
   30PEO   C0BA20544   1.080   3.091   3.865  0.2031  0.6158  0.0397
   30PEO   C0BB20545   1.172   3.198   3.811  0.0643 -0.3481 -0.3369
   30PEO   H0BC20546   1.236   3.162   3.729  2.7513  0.2204  1.4048
   30PEO   H0BD20547   1.108   3.285   3.789 -0.9463 -0.4498  1.9299
   30PEO   O0BE20548   1.259   3.236   3.922  0.1185  0.0856  0.1878
   30PEO   H0BF20549   1.314   3.425   3.850  0.0710  0.6733  1.9267
   30PEO   H0C020550   1.405   3.297   3.774  0.8035  1.0389  0.5780
   30PEO   C0C120551   1.357   3.326   3.869 -0.6625 -0.0224  0.1877
   30PEO   C0C220552   1.470   3.341   3.982  0.2737  0.2222  1.2042
   30PEO   H0C320553   1.468   3.246   4.036  1.3208 -0.5991 -0.1343
   30PEO   H0C420554   1.562   3.347   3.922 -0.5924 -0.3271 -0.2263
   30PEO   O0C520555   1.442   3.452   4.066  0.7539  0.7128  0.3360
   30PEO   H0C620556   1.620   3.520   4.142 -0.5369  2.6632  1.3638
   30PEO   H0C720557   1.556   3.385   4.229  2.5391  1.3601  0.0479
   30PEO   C0C820558   1.525   3.478   4.180 -0.1745  0.5354  0.0361
   30PEO   C0C920559   1.467   3.587   4.272 -0.1421 -0.0136 -0.1225
   30PEO   H0CA20560   1.361   3.564   4.286 -0.1738  1.1922  2.3295
   30PEO   H0CB20561   1.510   3.587   4.374  1.2025 -1.5040 -0.6595
   30PEO   O0CC20562   1.485   3.722   4.216 -0.2094  0.2095  0.4439
   30PEO   H0CD20563   1.500   3.804   4.395  0.1148  1.1277 -0.0578
   30PEO   H0CE20564   1.332   3.792   4.355 -0.9482  3.3903 -1.7331
   30PEO   C0CF20565   1.431   3.809   4.310  0.4203 -0.1055 -0.4038
   30PEO   C0D020566   1.437   3.958   4.260  0.3292  0.6420  0.7486
   30PEO   H0D120567   1.438   4.025   4.347 -0.0599  0.4274  0.9246
   30PEO   H0D220568   1.542   3.964   4.230  0.3144  0.2183  0.6036
   30PEO   O0D320569   1.351   3.980   4.144  0.0476 -0.1932 -0.1342
   30PEO   H0D420570   1.497   4.100   4.067  0.0975  0.3314  2.3039
   30PEO   H0D520571   1.370   4.183   4.144 -2.1147  0.8429 -1.4202
   30PEO   C0D620572   1.388   4.099   4.075 -0.1899  0.4019 -0.4643
   30PEO   C0D720573   1.312   4.099   3.944 -0.3518 -0.1680  0.2416
   30PEO   H0D820574   1.338   4.171   3.865 -0.5619  2.8901  2.7601
   30PEO   H0D920575   1.329   3.998   3.903 -0.0460 -0.4103  0.9489
   30PEO   O0DA20576   1.168   4.119   3.972  0.2436 -0.6100  0.4694
   30PEO   H0DB20577   1.131   3.986   3.813  2.7084  1.0378 -0.7337
   30PEO   H0DC20578   1.141   4.147   3.769  2.2179 -1.4040  0.2065
   30PEO   C0DD20579   1.099   4.085   3.850  0.2080 -0.0585  0.2793
   30PEO   C0DE20580   0.945   4.085   3.873  0.0348 -0.0561  0.2429
   30PEO   H0DF20581   0.917   4.173   3.932  0.5928  1.2256 -1.3364
   30PEO   H0E020582   0.901   4.112   3.777 -0.7984  2.3988  1.2421
   30PEO   O0E120583   0.896   3.963   3.931  0.0083 -0.0926 -0.1824
   30PEO   H0E220584   0.897   4.068   4.114  0.5077  1.6331 -2.6487
   30PEO   H0E320585   0.986   3.919   4.113  1.1166  0.7240 -0.3488
   30PEO   C0E420586   0.895   3.966   4.072  0.8513  0.4695 -0.0650
   30PEO   C0E520587   0.785   3.883   4.130  0.6507  1.0425  0.0442
   30PEO   H0E620588   0.776   3.785   4.081 -0.0300  1.8278 -1.4706
   30PEO   H0E720589   0.799   3.851   4.234 -2.8452  0.3298  0.3848
   30PEO   O0E820590   0.655   3.951   4.114 -0.6351  1.1518 -0.2162
   30PEO   H0E920591   0.599   3.838   3.954 -0.7394 -0.3718 -0.0651
   30PEO   H0EA20592   0.666   4.006   3.924  1.1094  0.6069  1.9199
   30PEO   C0EB20593   0.603   3.943   3.989  0.4446 -0.5048  0.2434
   30PEO   C0EC20594   0.453   3.995   4.002  0.7079 -0.4618 -0.7060
   30PEO   H0ED20595   0.395   3.956   3.917  1.1452  1.0718 -1.7468
   30PEO   H0EE20596   0.419   3.951   4.097  3.1433  1.1310  1.0351
   30PEO   O0EF20597   0.452   4.139   4.005 -0.5338  0.6883 -0.4118
   30PEO   H0F020598   0.284   4.151   4.142 -2.5573  0.5502 -1.4220
   30PEO   H0F120599   0.246   4.176   3.977  1.4061  0.9446 -1.3513
   30PEO   C0F220600   0.327   4.192   4.050  0.6397  0.0757 -0.2715
   30PEO   C0F320601   0.337   4.341   4.067 -1.0907 -0.6884  0.3000
   30PEO   H0F420602   0.378   4.390   3.977 -1.5601 -0.6222  0.1176
   30PEO   H0F520603   0.241   4.388   4.092 -0.7757 -0.3313  0.8404
   30PEO   O0F620604   0.418   4.364   4.185 -0.0481 -0.2531 -0.4040
   30PEO   H0F720605   0.373   4.563   4.223  1.5362  1.0335 -0.5013
   30PEO   H0F820606   0.504   4.547   4.109  1.8677  0.7182  0.5792
   30PEO   C0F920607   0.462   4.503   4.201  1.0277  0.1027 -0.0805
   30PEO   C0FA20608   0.570   4.532   4.311 -0.8765  0.3168 -0.6824
   30PEO   H0FB20609   0.572   4.632   4.357  1.5267 -1.3515  3.3057
   30PEO   H0FC20610   0.554   4.458   4.391 -1.4851  2.8964  1.7141
   30PEO   O0FD20611   0.699   4.522   4.260  0.6064  0.4860 -0.0698
   30PEO   H0FE20612   0.681   4.341   4.149  0.2794 -0.8124  1.2389
   30PEO   H0FF20613   0.711   4.334   4.317 -1.2365  0.2493  0.6191
   30PEO   C10020614   0.740   4.391   4.227  0.5575 -0.3663  0.7534
   30PEO   C10120615   0.890   4.399   4.204  0.2130  0.0217 -0.3170
   30PEO   H10220616   0.935   4.475   4.269  3.7025  0.9187 -3.4635
   30PEO   H10320617   0.931   4.304   4.241 -0.7320 -0.1056  0.4459
   30PEO   O10420618   0.917   4.428   4.066 -0.0291 -0.8162 -0.5748
   30PEO   H10520619   1.098   4.318   4.039 -2.9183 -1.1148 -2.6287
   30PEO   H10620620   1.105   4.486   4.106  2.8053 -0.5398 -1.5284
   30PEO   C10720621   1.055   4.419   4.035 -0.6828  0.0688  0.1069
   30PEO   C10820622   1.089   4.469   3.893  0.4020 -0.6100 -0.0914
   30PEO   H10920623   1.154   4.395   3.843  0.1177 -0.4715 -0.6741
   30PEO   H10A20624   0.997   4.460   3.834 -1.6848 -0.4828  2.9120
   30PEO   O10B20625   1.158   4.595   3.880  0.4799 -0.1996  0.3353
   30PEO   H10C20626   1.088   4.632   3.690 -0.6279  0.6500  1.4527
   30PEO   H10D20627   1.238   4.536   3.703  0.0613 -0.2593 -1.3781
   30PEO   C10E20628   1.186   4.626   3.739  0.3101 -0.4825 -0.4515
   30PEO   C10F20629   1.271   4.751   3.735  0.7792 -0.0002  0.3870
   30PEO   H11020630   1.255   4.806   3.642 -1.2704  0.9421  1.2244
   30PEO   H11120631   1.248   4.825   3.813  0.8761  0.9622 -0.4801
   30PEO   O11220632   1.408   4.699   3.750  0.4894  0.1124  0.9522
   30PEO   H11320633   1.597   4.739   3.815  1.8783  1.6028  1.2634
   30PEO   H11420634   1.485   4.880   3.808 -0.6528 -0.6538 -0.6149
   30PEO   C11520635   1.517   4.788   3.757  0.7100 -0.9179  0.6477
   30PEO   C11620636   1.552   4.822   3.611 -1.4683 -0.1595 -0.5132
   30PEO   H11720637   1.661   4.813   3.602 -1.3644  1.0813 -0.7230
   30PEO   H11820638   1.497   4.755   3.543 -0.2692  1.4574 -3.2642
   30PEO   O11920639   1.514   4.956   3.583 -0.0387 -0.4144  0.0263
   30PEO   H11A20640   1.445   4.978   3.390  0.1363 -0.1625 -0.3067
   30PEO   H11B20641   1.617   4.924   3.410 -0.0993 -0.5419  0.9127
   30PEO   C11C20642   1.540   4.995   3.443  0.1069  0.3299 -0.4045
   30PEO   C11D20643   1.596   5.138   3.448 -0.5514 -0.2814  0.0139
   30PEO   H11E20644   1.591   5.186   3.350  0.3233  0.2120  0.1989
   30PEO   H11F20645   1.540   5.204   3.517 -1.4715 -0.7550 -0.2659
   30PEO   O12020646   1.732   5.123   3.504 -0.4570 -0.0277 -0.5863
   30PEO   H12120647   1.738   5.297   3.626 -1.2837 -0.8785 -0.7706
   30PEO   H12220648   1.830   5.307   3.473 -1.5849  1.8996  0.7893
   30PEO   C12320649   1.801   5.240   3.556 -0.7521 -0.4127 -0.6806
   30PEO   C12420650   1.917   5.188   3.643  0.3129 -0.3895 -1.1118
   30PEO   H12520651   1.971   5.263   3.703  1.1951 -0.5138 -1.7339
   30PEO   H12620652   1.888   5.110   3.714  0.5597  0.2962 -0.2423
   30PEO   O12720653   2.025   5.139   3.562 -0.2097  0.0091  0.1331
   30PEO   H12820654   2.118   4.976   3.654  0.8106  0.3750  0.5374
   30PEO   H12920655   2.127   5.135   3.738 -4.1002 -0.2441 -0.0274
   30PEO   C12A20656   2.131   5.084   3.640 -0.6605  0.4676 -0.3973
   30PEO   C12B20657   2.271   5.102   3.574 -0.5593 -0.3457  0.4272
   30PEO   H12C20658   2.350   5.079   3.647  0.1230 -3.2924 -1.0838
   30PEO   H12D20659   2.283   5.025   3.497 -2.0187 -0.1535 -0.0230
   30PEO   O12E20660   2.284   5.233   3.531 -0.4125  0.3786  0.4578
   30PEO   H12F20661   2.472   5.191   3.466  0.4850  0.8658 -0.3642
   30PEO   H13020662   2.463   5.296   3.612 -2.6091 -0.6742  0.5345
   30PEO   C13120663   2.419   5.275   3.514 -0.4227  0.5430 -0.7776
   30PEO   C13220664   2.415   5.401   3.420  0.3126  0.0164  0.8265
   30PEO   H13320665   2.326   5.462   3.443 -1.9336 -2.6697 -0.2705
   30PEO   H13420666   2.499   5.471   3.433 -0.1616  0.6474  0.5368
   30PEO   O13520667   2.403   5.348   3.286  0.8541 -0.0329 -0.4454
   30PEO   H13620668   2.494   5.498   3.196  0.5599 -0.8956  1.3719
   30PEO   H13720669   2.310   5.515   3.198 -2.2923 -1.9409 -0.7591
   30PEO   C13820670   2.397   5.448   3.183 -0.0715  0.5694  0.1282
   30PEO   C13920671   2.388   5.380   3.044  0.1945  0.2305  0.0436
   30PEO   H13A20672   2.297   5.318   3.038 -3.0899  4.5908  0.0646
   30PEO   H13B20673   2.389   5.456   2.965 -0.1294 -1.6114 -1.8225
   30PEO   O13C20674   2.510   5.308   3.025  0.4178  0.3375  0.0834
   30PEO   H13D20675   2.504   5.284   2.820 -0.4526 -1.2375  0.6118
   30PEO   H13E20676   2.446   5.145   2.912 -1.0975  1.9998 -2.8063
   30PEO   C13F20677   2.525   5.221   2.908  1.3371  0.0010  1.1269
   30PEO   C14020678   2.671   5.162   2.896 -0.5808  0.3760  0.4283
   30PEO   H14120679   2.695   5.133   2.999 -1.0911 -0.0213  0.4379
   30PEO   H14220680   2.663   5.069   2.837 -2.2070  1.1559 -0.6499
   30PEO   O14320681   2.752   5.261   2.832  0.2000  0.0624 -0.4525
   30PEO   H14420682   2.920   5.127   2.799 -2.2730 -1.0530 -0.2283
   30PEO   H14520683   2.929   5.246   2.937 -1.6971  2.8684  0.0363
   30PEO   C14620684   2.892   5.228   2.834  0.2479 -0.2955 -0.2383
   30PEO   C14720685   2.959   5.332   2.740 -0.1588  0.1801  0.2679
   30PEO   H14820686   2.930   5.435   2.767 -1.0958 -0.7150  3.0724
   30PEO   H14920687   3.068   5.316   2.737 -0.6632 -4.6510 -0.0504
   30PEO   O14A20688   2.916   5.297   2.607  0.0601  0.5653  0.2332
   30PEO   H14B20689   3.021   5.441   2.491  0.2676  0.0897  2.3769
   30PEO   H14C20690   2.844   5.467   2.504 -0.3017 -0.6839  0.5026
   30PEO   C14D20691   2.923   5.391   2.494  0.2486 -0.0982  0.3130
   30PEO   C14E20692   2.884   5.316   2.365  0.9402 -0.5135  0.0165
   30PEO   H14F20693   2.778   5.287   2.369  0.8036  0.0583  0.7671
   30PEO   H15020694   2.887   5.380   2.276  0.4197  0.4617  0.6757
   30PEO   O15120695   2.963   5.198   2.336  0.0115  0.3998  0.0366
   30PEO   H15220696   3.124   5.200   2.481  0.2860  1.7234  0.9499
   30PEO   H15320697   3.145   5.280   2.331 -0.8319  0.5603  0.4006
   30PEO   C15420698   3.102   5.188   2.373  0.7238  0.0778  1.0128
   30PEO   C15520699   3.171   5.062   2.317 -0.6445 -0.3173 -0.3897
   30PEO   H15620700   3.186   5.078   2.210  1.4426 -1.9830 -0.3976
   30PEO   H15720701   3.265   5.041   2.370 -0.0490  0.5994 -1.0692
   30PEO   O15820702   3.081   4.951   2.342  0.1696  0.2921  0.1286
   30PEO   H15920703   3.214   4.827   2.239  0.7886 -0.9656 -2.5199
   30PEO   H15A20704   3.051   4.833   2.175  0.3384 -1.8265  0.7507
   30PEO   C15B20705   3.108   4.832   2.269  1.5223  0.8589  0.1575
   30PEO   C15C20706   3.069   4.707   2.349 -0.3010  0.2510  0.1531
   30PEO   H15D20707   2.963   4.720   2.376 -0.6292  0.1619 -1.0189
   30PEO   H15E20708   3.076   4.613   2.292  3.5163  0.7576 -0.4895
   30PEO   O15F20709   3.137   4.699   2.478 -1.1338 -0.0844 -0.5220
   30PEO   H16020710   3.330   4.659   2.568  1.4067  1.8879  0.1265
   30PEO   H16120711   3.339   4.731   2.403  0.3239 -0.3741 -0.6193
   30PEO   C16220712   3.281   4.665   2.470  0.7148  0.2282  0.3312
   30PEO   C16320713   3.297   4.519   2.422 -0.0648 -0.3283  0.1628
   30PEO   H16420714   3.199   4.469   2.426 -0.7384  0.8438 -0.9317
   30PEO   H16520715   3.339   4.524   2.320  0.7521  1.7500  0.5649
   30PEO   O16620716   3.378   4.437   2.503 -0.3082  0.5082  0.3520
   30PEO   H16720717   3.458   4.298   2.363 -0.9038  0.7410 -1.2224
   30PEO   H16820718   3.281   4.270   2.424 -0.9433 -0.2514  3.7697
   30PEO   C16920719   3.383   4.305   2.443 -0.0764 -0.0619 -0.3510
   30PEO   C16A20720   3.429   4.203   2.546  0.2375  0.1854 -0.4687
   30PEO   H16B20721   3.432   4.102   2.502 -2.1705 -0.5434  0.8927
   30PEO   H16C20722   3.531   4.227   2.580 -0.4533  1.8136  0.5601
   30PEO   O16D20723   3.337   4.205   2.660 -0.0819  0.1785  0.2393
   30PEO   H16E20724   3.309   4.173   2.864 -2.0879 -2.4256 -0.9582
   30PEO   H16F20725   3.481   4.185   2.809  0.1802 -1.1713  0.0499
   30PEO   C17020726   3.380   4.147   2.785 -0.2173  0.0153 -0.1986
   30PEO   C17120727   3.375   3.997   2.774  0.5109 -0.3751  0.6103
   30PEO   H17220728   3.433   3.962   2.688  1.0994 -1.4254  1.4247
   30PEO   H17320729   3.419   3.943   2.858  0.9063 -0.7505  0.1623
   30PEO   O17420730   3.239   3.965   2.755  0.8659  0.1883  0.1543
   30PEO   H17520731   3.265   3.821   2.615 -1.5181 -3.7924 -0.2447
   30PEO   H17620732   3.102   3.847   2.664  0.3489  0.8626  0.2304
   30PEO   C17720733   3.204   3.838   2.704  0.2366  0.1766  0.3840
   30PEO   C17820734   3.214   3.716   2.806  0.6095 -0.4909  0.5544
   30PEO   H17920735   3.164   3.731   2.903 -0.0065  2.1698 -0.1213
   30PEO   H17A20736   3.147   3.646   2.755 -0.9908 -0.0101  1.9150
   30PEO   O17B20737   3.346   3.662   2.820 -0.0089 -0.0157 -0.4140
   30PEO   H17C20738   3.262   3.494   2.920  0.6926 -1.8236  1.6811
   30PEO   H17D20739   3.381   3.595   3.004  1.5172  0.0674 -0.6539
   30PEO   C17E20740   3.353   3.555   2.906 -0.1534 -0.8408  0.1574
   30PEO   C17F20741   3.463   3.459   2.855  0.4884 -0.3682 -0.8250
   30PEO   H18020742   3.481   3.376   2.925  0.8326  0.4969  0.1400
   30PEO   H18120743   3.429   3.412   2.762  1.3379 -1.0323 -0.8201
   30PEO   O18220744   3.581   3.533   2.829  0.3234  0.2383 -0.2237
   30PEO   H18320745   3.660   3.344   2.802 -2.5362  0.8244  1.1503
   30PEO   H18420746   3.787   3.469   2.816  0.0011  0.2376 -1.7066
   30PEO   C18520747   3.686   3.449   2.779 -1.0354  0.4038  0.8460
   30PEO   C18620748   3.707   3.453   2.622  0.2371 -0.7528 -0.3911
   30PEO   H18720749   3.788   3.389   2.586  1.6001  0.1465  0.9533
   30PEO   H18820750   3.609   3.438   2.574 -0.3682 -1.2766  0.9522
   30PEO   O18920751   3.753   3.585   2.579  0.6583  0.0819  0.1000
   30PEO   H18A20752   3.657   3.578   2.391  0.8362  1.3309 -2.4407
   30PEO   H18B20753   3.750   3.716   2.419  2.7152 -3.2379 -0.5026
   30PEO   C18C20754   3.681   3.648   2.471 -0.6151 -0.1756 -0.5766
   30PEO   C18D20755   3.572   3.748   2.519  0.0491 -0.2696 -1.4436
   30PEO   H18E20756   3.528   3.784   2.425  1.1219  0.3319 -1.7314
   30PEO   H18F20757   3.497   3.705   2.588  1.9242  1.1004  1.6909
   30PEO   O19020758   3.630   3.867   2.587 -0.5142  0.2800 -0.5508
   30PEO   H19120759   3.808   3.785   2.672  0.3373  0.6315 -0.1440
   30PEO   H19220760   3.660   3.787   2.778 -0.8496  1.9798  1.4268
   30PEO   C19320761   3.717   3.840   2.700  0.2363  0.0051  0.8069
   30PEO   C19420762   3.766   3.977   2.758  0.1001 -0.0991 -0.2558
   30PEO   H19520763   3.863   3.968   2.810 -0.0233  2.8976  0.6702
   30PEO   H19620764   3.787   4.047   2.676  1.1860 -1.0561 -0.8212
   30PEO   O19720765   3.672   4.040   2.847 -0.0422 -0.4754  0.2771
   30PEO   H19820766   3.769   3.963   3.022  1.0493 -0.6358 -1.2635
   30PEO   H19920767   3.623   3.898   2.998  3.9353 -0.7419  1.5189
   30PEO   C19A20768   3.671   3.995   2.982  0.7319  0.8364  0.5458
   30PEO   C19B20769   3.598   4.099   3.064 -0.1378  0.3608  0.0771
   30PEO   H19C20770   3.498   4.120   3.023  0.3084  0.5493 -0.9671
   30PEO   H19D20771   3.604   4.047   3.160  1.7434 -3.1529 -1.7709
   30PEO   O19E20772   3.686   4.216   3.090  0.4106 -0.2420  0.3084
   30PEO   H19F20773   3.620   4.269   3.291  1.0781  1.1945  0.8647
   30PEO   H1A020774   3.512   4.324   3.168  0.7573  0.6948  2.9915
   30PEO   C1A120775   3.618   4.301   3.186  0.9514 -1.1335  0.0955
   30PEO   C1A220776   3.689   4.435   3.179  0.5656  0.8571 -0.3071
   30PEO   H1A320777   3.631   4.503   3.242  1.3227 -2.0918  3.9634
   30PEO   H1A420778   3.791   4.430   3.219 -0.3387  0.2307  2.0850
   30PEO   O1A520779   3.681   4.498   3.046  0.0995 -0.7420 -0.7544
   30PEO   H1A620780   3.494   4.605   3.083 -0.4528 -1.1949  0.9145
   30PEO   H1A720781   3.489   4.456   2.995  2.1862 -0.1336 -1.2340
   30PEO   C1A820782   3.549   4.547   3.007  0.2552  1.0741 -0.3830
   30PEO   C1A920783   3.553   4.621   2.876  0.2060 -0.0295 -0.4245
   30PEO   H1AA20784   3.624   4.566   2.812  0.5088  2.6295 -2.5709
   30PEO   H1AB20785   3.449   4.619   2.840 -0.7271 -0.9529  2.0985
   30PEO   O1AC20786   3.601   4.758   2.894  0.9262 -0.2955 -0.0592
   30PEO   H1AD20787   3.710   4.925   2.827  2.3882 -0.7445 -0.0153
   30PEO   H1AE20788   3.594   4.859   2.708 -2.0674  0.5911  1.3852
   30PEO   C1AF20789   3.665   4.832   2.788  0.5549  0.4367 -0.8086
   30PEO   C1B020790   3.775   4.747   2.717  0.3674  0.8395  0.1673
   30PEO   H1B120791   3.858   4.804   2.674  1.0034 -0.4876 -0.4300
   30PEO   H1B220792   3.807   4.686   2.804  0.9520  0.4244 -0.3291
   30PEO   O1B320793   3.718   4.646   2.624 -0.1037  0.0751 -0.0145
   30PEO   H1B420794   3.916   4.580   2.607 -0.1653  2.0027 -0.7460
   30PEO   H1B520795   3.833   4.584   2.453  2.4047 -2.3329 -0.6464
   30PEO   C1B620796   3.818   4.563   2.560 -0.0268  0.0703 -0.4166
   30PEO   C1B720797   3.763   4.418   2.577 -0.3284  0.0251  0.5625
   30PEO   H1B820798   3.659   4.423   2.613 -1.5356  1.4147 -2.7221
   30PEO   H1B920799   3.750   4.373   2.478 -0.1332  0.3831  0.3732
   30PEO   O1BA20800   3.851   4.337   2.661 -0.2235 -0.6591  0.5647
   30PEO   H1BB20801   3.724   4.360   2.814  0.6521 -3.9773 -1.2853
   30PEO   H1BC20802   3.842   4.488   2.809 -0.3889 -0.3892  0.4254
   30PEO   C1BD20803   3.830   4.380   2.792  0.3939 -0.4379  0.1287
   30PEO   C1BE20804   3.908   4.289   2.886 -0.3094 -0.0102  0.4118
   30PEO   H1BF20805   3.886   4.316   2.991  0.1598 -1.1020  0.8056
   30PEO   H1C020806   3.871   4.187   2.872  2.1617 -1.1097  1.2234
   30PEO   O1C120807   4.042   4.315   2.848 -0.0422  0.5014  0.0473
   30PEO   H1C220808   4.090   4.146   2.953 -0.0464 -1.2061 -1.6694
   30PEO   H1C320809   4.138   4.312   3.016  1.6648  0.4129 -0.6794
   30PEO   C1C420810   4.135   4.244   2.930 -0.0363 -0.7278  0.2159
   30PEO   C1C520811   4.278   4.223   2.871 -0.6130 -0.7724  1.1068
   30PEO   H1C620812   4.302   4.306   2.804  2.4171 -1.7748  0.8285
   30PEO   H1C720813   4.347   4.226   2.957  0.9729 -2.9116 -0.0013
   30PEO   O1C820814   4.283   4.095   2.813 -0.1025  0.0619  0.2412
   30PEO   H1C920815   4.225   4.156   2.622  2.2862  2.5602  1.3055
   30PEO   H1CA20816   4.094   4.090   2.711 -1.3163 -1.8861 -2.7072
   30PEO   C1CB20817   4.201   4.075   2.692 -0.2462  1.7443 -0.3647
   30PEO   C1CC20818   4.186   3.929   2.636  0.4059  0.7742  0.5053
   30PEO   H1CD20819   4.176   3.852   2.713  0.5410  0.7858  0.5359
   30PEO   H1CE20820   4.099   3.932   2.568  1.6139 -0.4478 -1.1929
   30PEO   O1CF20821   4.299   3.898   2.554 -0.5199  0.0038  0.1069
   30PEO   H1D020822   4.231   4.022   2.396  2.3799  3.3178 -0.5536
   30PEO   H1D120823   4.344   3.889   2.356  1.4341  1.3509 -0.7563
   30PEO   C1D220824   4.321   3.967   2.430  0.3679  0.2064  0.1552
   30PEO   C1D320825   4.446   4.054   2.437 -0.2715  0.4024  1.2637
   30PEO   H1D420826   4.453   4.098   2.336 -0.1379 -1.3047  0.5004
   30PEO   H1D520827   4.434   4.123   2.522 -0.8464 -0.0929  1.5891
   30PEO   O1D620828   4.552   3.971   2.470  0.0997 -0.2173  0.9758
   30PEO   H1D720829   4.662   4.007   2.287  2.1848  0.0574  0.2551
   30PEO   H1D820830   4.561   3.869   2.280  0.8119  2.3950 -2.0743
   30PEO   C1D920831   4.625   3.925   2.349  0.0871  0.7529  0.0088
   30PEO   C1DA20832   4.751   3.847   2.387 -0.2906  0.5325 -0.8177
   30PEO   H1DB20833   4.728   3.781   2.471  0.0655  0.4999 -0.7427
   30PEO   H1DC20834   4.796   3.795   2.301 -0.2166  0.0385 -0.4784
   30PEO   O1DD20835   4.849   3.942   2.432  0.6624 -0.1917 -0.2982
   30PEO   H1DE20836   5.031   3.873   2.350 -1.2508  0.3037 -1.0677
   30PEO   H1DF20837   4.984   3.799   2.508  4.5600 -1.7958 -2.1602
   30PEO   C1E020838   4.984   3.892   2.448 -0.2046 -0.3381 -0.4284
   30PEO   C1E120839   5.081   3.994   2.511  0.4385 -0.0179  0.0188
   30PEO   H1E220840   5.061   3.997   2.619  1.5977 -2.5144  0.3598
   30PEO   H1E320841   5.180   3.947   2.505  0.9363  1.0151 -0.1749
   30PEO   O1E420842   5.080   4.130   2.458 -0.1661 -0.0115  0.3761
   30PEO   H1E520843   5.273   4.187   2.523  1.7383  1.4077 -3.9180
   30PEO   H1E620844   5.142   4.235   2.631 -1.7536  0.0259 -0.5809
   30PEO   C1E720845   5.169   4.223   2.525  1.1840  0.0593  0.0813
   30PEO   C1E820846   5.160   4.366   2.471  0.2830 -0.4914  0.1078
   30PEO   H1E920847   5.260   4.410   2.485  0.1947 -0.1108 -0.4294
   30PEO   H1EA20848   5.140   4.369   2.363  3.0243  1.5004 -0.4483
   30PEO   O1EB20849   5.045   4.427   2.539 -0.4632  0.1005  0.1614
   30PEO   H1EC20850   5.080   4.625   2.486  1.0008  0.5862  1.0220
   30PEO   H1ED20851   4.928   4.590   2.574 -0.7965 -0.8692 -0.5426
   30PEO   C1EE20852   4.996   4.554   2.495  0.9873  0.5039  0.2938
   30PEO   C1EF20853   4.930   4.547   2.359  0.5778  0.5644 -0.3648
   30PEO   H1F020854   4.907   4.647   2.318 -0.4425 -0.4848 -2.5278
   30PEO   H1F120855   4.991   4.496   2.283  0.2724 -2.6039  1.3495
   30PEO   O1F220856   4.800   4.488   2.368  0.5758  0.5709  0.1334
   30PEO   H1F320857   4.784   4.370   2.545 -2.0885 -0.7823  0.3309
   30PEO   H1F420858   4.872   4.290   2.417  1.1778  0.5857  0.5213
   30PEO   C1F520859   4.788   4.358   2.436  0.4880 -0.1880  0.3026
   30PEO   C1F620860   4.656   4.291   2.391 -0.2394  0.0269 -0.6437
   30PEO   H1F720861   4.646   4.312   2.283 -1.3814 -0.5063 -0.6645
   30PEO   H1F820862   4.659   4.181   2.400  0.4557  0.1855  1.7664
   30PEO   O1F920863   4.547   4.337   2.471  0.0375 -0.3731 -0.0772
   30PEO   H1FA20864   4.485   4.466   2.324  0.2846  3.0154 -0.3368
   30PEO   H1FB20865   4.562   4.548   2.441 -0.5416  1.3835 -4.0026
   30PEO   C1FC20866   4.493   4.463   2.434  0.0277  0.4243 -0.3228
   30PEO   C1FD20867   4.353   4.493   2.495  0.3885 -0.0978  0.1479
   30PEO   H1FE20868   4.352   4.509   2.604  0.1271  1.8020 -0.0961
   30PEO   H1FF20869   4.309   4.581   2.445  1.1057  0.3905  0.3459
   30PEO   O20020870   4.277   4.376   2.465 -0.1290  0.3570  0.1880
   30PEO   H20120871   4.111   4.481   2.520  1.4151  0.4222  0.8170
   30PEO   H20220872   4.107   4.309   2.564  2.3314  0.4018  0.6189
   30PEO   C20320873   4.131   4.379   2.483 -0.4770  0.3986 -0.3325
   30PEO   C20420874   4.065   4.359   2.348  0.2977  0.3357 -0.4440
   30PEO   H20520875   4.131   4.285   2.302  0.9193 -0.7338  2.0117
   30PEO   H20620876   3.967   4.309   2.358 -1.1580  3.2511  1.5289
   30PEO   O20720877   4.043   4.486   2.285  0.1211 -0.3046  0.0499
   30PEO   H20820878   4.126   4.436   2.112  0.7443 -1.2925  0.6984
   30PEO   H20920879   4.246   4.511   2.234 -0.5155 -0.9504  1.6363
   30PEO   C20A20880   4.144   4.510   2.192  0.1452 -0.3177 -0.0557
   30PEO   C20B20881   4.115   4.653   2.136 -0.4196  0.2538 -0.7966
   30PEO   H20C20882   4.110   4.725   2.219 -0.0919 -0.6456  0.0143
   30PEO   H20D20883   4.204   4.686   2.080 -0.0730  0.7211  0.0126
   30PEO   O20E20884   3.997   4.649   2.068  0.5427  0.1675  0.3419
   30PEO   H20F20885   4.052   4.770   1.898  0.9962 -0.3947  1.4688
   30PEO   H21020886   3.983   4.854   2.040 -0.9964  1.1112 -1.7267
   30PEO   C21120887   3.978   4.762   1.980 -0.7290 -0.0881  0.0066
   30PEO   C21220888   3.830   4.751   1.919  0.4709 -0.3595  0.4605
   30PEO   H21320889   3.761   4.714   1.996 -0.5955  1.0037  0.1830
   30PEO   H21420890   3.806   4.848   1.875  1.3114 -0.6008 -0.5683
   30PEO   O21520891   3.823   4.645   1.815 -0.5364 -1.1317 -0.8430
   30PEO   H21620892   3.967   4.707   1.681  0.2811  0.3806 -1.7334
   30PEO   H21720893   3.819   4.787   1.665  1.0914 -0.6343 -2.5651
   30PEO   C21820894   3.859   4.686   1.685  0.4699 -0.4466 -0.0631
   30PEO   C21920895   3.806   4.580   1.584  0.5199 -0.3994  0.2273
   30PEO   H21A20896   3.845   4.618   1.489  1.5893 -0.2179  0.7289
   30PEO   H21B20897   3.843   4.479   1.608 -0.9066 -0.6835  1.4179
   30PEO   O21C20898   3.654   4.564   1.583 -0.5908  0.0418  0.5636
   30PEO   H21D20899   3.518   4.480   1.718 -1.1512 -1.1412 -0.7157
   30PEO   H21E20900   3.690   4.424   1.730  0.9892  0.6002 -0.5759
   30PEO   C21F20901   3.608   4.450   1.662 -0.1074 -0.1835  0.3945
   30PEO   C22020902   3.564   4.329   1.573 -1.0091  0.0811  0.3066
   30PEO   H22120903   3.650   4.289   1.519 -1.0673 -1.7908  1.5299
   30PEO   H22220904   3.515   4.245   1.624 -1.4472 -1.0751 -1.9110
   30PEO   O22320905   3.476   4.381   1.479  0.6057  0.6110 -0.0749
   30PEO   H22420906   3.299   4.316   1.388 -0.1507 -0.2376  0.0902
   30PEO   H22520907   3.398   4.182   1.468  1.3924 -0.5207 -0.3853
   30PEO   C22620908   3.399   4.278   1.414 -0.1495 -0.1118  0.2694
   30PEO   C22720909   3.454   4.246   1.279  0.5644  0.2528 -0.2803
   30PEO   H22820910   3.379   4.184   1.228 -0.0407  2.0413 -1.6702
   30PEO   H22920911   3.466   4.339   1.221  0.2143  1.5827  1.6869
   30PEO   O22A20912   3.581   4.179   1.299 -0.0613  0.1353 -0.1275
   30PEO   H22B20913   3.602   4.204   1.104 -1.3206  2.4379  1.9095
   30PEO   H22C20914   3.614   4.027   1.170 -0.2235  0.0001  1.5454
   30PEO   C22D20915   3.642   4.133   1.178 -0.2465  0.2113 -0.6232
   30PEO   C22E20916   3.796   4.149   1.189  0.0767 -0.0588  0.5964
   30PEO   H22F20917   3.819   4.131   1.295  0.0682  0.3513  0.6694
   30PEO   H23020918   3.849   4.075   1.126 -0.4739 -0.9274  1.1263
   30PEO   O23120919   3.832   4.280   1.147 -0.0683  0.2711  0.7366
   30PEO   H23220920   4.007   4.292   1.263 -0.6758 -1.9281 -2.1070
   30PEO   H23320921   3.885   4.392   1.328 -0.7021 -0.2438  0.6666
   30PEO   C23420922   3.923   4.355   1.231 -0.2870  0.1604  0.6690
   30PEO   C23520923   3.973   4.472   1.150 -0.0227 -0.4486  0.1811
   30PEO   H23620924   3.923   4.462   1.053  0.5292  0.9055 -0.2589
   30PEO   H23720925   3.938   4.571   1.180 -0.4736 -0.4154 -0.4361
   30PEO   O23820926   4.118   4.468   1.152  0.3855 -0.3104  0.2091
   30PEO   H23920927   4.141   4.404   1.349 -0.2763  1.6332  0.2125
   30PEO   H23A20928   4.199   4.573   1.318  0.8709  1.2682 -1.5163
   30PEO   C23B20929   4.187   4.472   1.276  0.7638  0.6560 -0.0666
   30PEO   C23C20930   4.327   4.407   1.255  0.1049 -0.6033  0.3643
   30PEO   H23D20931   4.385   4.392   1.346  1.2836 -1.0064 -0.4298
   30PEO   H23E20932   4.313   4.305   1.216 -1.5677  0.4207 -2.0293
   30PEO   O23F20933   4.403   4.483   1.157  0.5284 -0.4458 -0.6032
   30PEO   H24020934   4.526   4.562   1.305  0.1574 -0.0463 -0.2273
   30PEO   H24120935   4.406   4.674   1.218  0.6625  0.6277 -1.1417
   30PEO   C24220936   4.475   4.588   1.211  0.1415  0.1201 -0.1714
   30PEO   C24320937   4.580   4.609   1.106 -0.1727  0.3419  0.3298
   30PEO   H24420938   4.548   4.619   1.001  1.4129  4.0178  0.0562
   30PEO   H24520939   4.635   4.702   1.125  1.6721 -0.0819 -2.4048
   30PEO   O24620940   4.679   4.500   1.109  0.2680  0.2263  0.0146
   30PEO   H24720941   4.733   4.484   0.916 -2.7701 -0.2656  2.6682
   30PEO   H24820942   4.856   4.410   1.015 -0.9332 -0.2534  0.4216
   30PEO   C24920943   4.788   4.496   1.010  0.3820  0.8431  0.8256
   30PEO   C24A20944   4.880   4.618   1.007  0.0123 -0.5554 -0.2514
   30PEO   H24B20945   4.951   4.602   0.925 -1.3825 -1.3533 -1.3459
   30PEO   H24C20946   4.808   4.700   0.997 -0.3253 -0.9954 -1.6908
   30PEO   O24D20947   4.948   4.625   1.132 -0.1171 -0.7613  0.2185
   30PEO   H24E20948   5.154   4.643   1.117 -0.1391 -1.2838 -0.7180
   30PEO   H24F20949   5.088   4.482   1.069 -3.3171  0.9844 -2.0935
   30PEO   C25020950   5.079   4.565   1.140 -0.8778 -0.3916 -0.0057
   30PEO   C25120951   5.098   4.528   1.293 -0.1215 -0.3866 -0.1472
   30PEO   H25220952   5.195   4.483   1.317 -0.1596  0.8698  2.6818
   30PEO   H25320953   5.085   4.627   1.339  1.0943  0.1058 -0.8341
   30PEO   O25420954   4.995   4.433   1.338  0.4707 -0.0157  0.2883
   30PEO   H25520955   4.861   4.579   1.352 -1.4547 -0.7787 -0.9926
   30PEO   H25620956   4.933   4.530   1.508  0.3863  0.8037 -0.5553
   30PEO   C25720957   4.888   4.493   1.414 -0.1641  0.2546 -0.0833
   30PEO   C25820958   4.780   4.385   1.425  0.3304  0.2209  0.7635
   30PEO   H25920959   4.689   4.441   1.451 -0.1770 -0.2000 -0.0602
   30PEO   H25A20960   4.752   4.349   1.325 -0.0532  0.4139  0.7967
   30PEO   O25B20961   4.800   4.276   1.523 -0.1375 -0.0196  0.1029
   30PEO   H25C20962   4.623   4.183   1.485  2.2611 -2.7622 -1.1907
   30PEO   H25D20963   4.619   4.278   1.640 -3.1945 -0.9214 -1.7756
   30PEO   C25E20964   4.679   4.216   1.573 -0.6957 -0.6683  0.1066
   30PEO   C25F20965   4.723   4.083   1.640 -0.2109 -1.1703  0.2605
   30PEO   H26020966   4.631   4.023   1.651 -0.6791 -1.8533 -4.8868
   30PEO   H26120967   4.793   4.033   1.571 -0.2788  0.0585 -0.7340
   30PEO   O26220968   4.790   4.109   1.763 -0.1317 -0.1198 -0.6672
   30PEO   H26320969   4.623   4.062   1.878 -0.1602 -0.8066  3.1440
   30PEO   H26420970   4.668   4.239   1.865 -0.7738 -1.3928 -3.5938
   30PEO   C26520971   4.704   4.136   1.878 -0.0917 -0.7847  0.7640
   30PEO   C26620972   4.764   4.106   2.016  0.5932 -0.1191  0.1230
   30PEO   H26720973   4.686   4.099   2.093 -0.2248  1.8234 -0.4611
   30PEO   H26820974   4.818   4.011   2.017 -0.9047 -0.9977 -0.0711
   30PEO   O26920975   4.851   4.212   2.058  0.2287  0.7132 -0.4020
   30PEO   H26A20976   4.903   4.099   2.223 -0.7486  0.5985  1.3190
   30PEO   H26B20977   4.957   4.270   2.223  0.7081 -0.8351  1.6273
   30PEO   C26C20978   4.946   4.179   2.162 -0.3999 -0.0860  0.6604
   30PEO   C26D20979   5.083   4.143   2.104 -0.8435 -0.4095  0.3390
   30PEO   H26E20980   5.094   4.194   2.007 -0.8971  0.7868  0.9380
   30PEO   H26F20981   5.161   4.184   2.169 -2.7902  0.3462  2.3218
   30PEO   O27020982   5.079   4.003   2.089  0.4248  0.3842 -0.1155
   30PEO   H27120983   5.239   4.015   1.950 -1.1376  2.0334  1.3392
   30PEO   H27220984   5.182   3.849   2.017 -0.9061  0.5364 -0.5247
   30PEO   C27320985   5.203   3.955   2.035  0.1925  0.1406  0.6417
   30PEO   C27420986   5.310   3.951   2.149  0.0600 -1.0770  0.7558
   30PEO   H27520987   5.411   3.970   2.109 -0.9033  0.3046 -1.1880
   30PEO   H27620988   5.290   4.032   2.221 -1.5484 -0.8619  0.1079
   30PEO   O27720989   5.307   3.834   2.220 -0.4401 -0.1303 -0.4011
   30PEO   H27820990   5.407   3.910   2.381 -1.0073 -1.5403  0.4179
   30PEO   H27920991   5.502   3.829   2.267  0.1141 -0.6041 -0.1597
   30PEO   C27A20992   5.402   3.822   2.314  0.1850 -1.2357 -0.0921
   30PEO   C27B20993   5.385   3.694   2.388  0.2682  0.6957  0.2581
   30PEO   H27C20994   5.387   3.621   2.306  0.2720 -2.3428  2.7690
   30PEO   H27D20995   5.466   3.692   2.463 -0.4095  1.8850  1.0589
   30PEO   O27E20996   5.267   3.677   2.459 -0.0064 -0.2083 -0.1143
   30PEO   H27F20997   5.357   3.523   2.575 -0.6199  0.2421  0.7758
   30PEO   H28020998   5.263   3.473   2.435  1.4918  0.8313 -0.1676
   30PEO   C28120999   5.267   3.546   2.517  0.0403  0.8158 -0.0584
   30PEO   C28221000   5.137   3.526   2.610  0.1409 -0.1356 -0.0619
   30PEO   H28321001   5.040   3.524   2.557  0.1921  1.9853 -0.2980
   30PEO   H28421002   5.151   3.426   2.653 -1.9589  0.3100  1.9379
   30PEO   O28521003   5.126   3.628   2.715  0.3343 -0.0265 -0.1849
   30PEO   H28621004   5.317   3.679   2.783 -0.7550  1.4697 -0.8822
   30PEO   H28721005   5.246   3.535   2.866 -1.2671 -0.6177 -1.6229
   30PEO   C28821006   5.225   3.633   2.821  0.0392  0.3169 -0.2850
   30PEO   C28921007   5.166   3.713   2.945  0.7066  0.5369  1.1467
   30PEO   H28A21008   5.246   3.746   3.014  1.9539 -0.0362  0.0200
   30PEO   H28B21009   5.111   3.799   2.904 -2.5174  0.1962  4.2607
   30PEO   O28C21010   5.063   3.641   3.014 -0.6646 -0.9292 -0.2442
   30PEO   H28D21011   5.020   3.798   3.141 -0.9909 -0.1356 -1.9284
   30PEO   H28E21012   5.121   3.671   3.210  0.5409  4.5904 -0.0768
   30PEO   C28F21013   5.035   3.689   3.144 -0.1585 -0.0144 -0.7717
   30PEO   C29021014   4.901   3.632   3.193  0.6528  0.0672  0.1037
   30PEO   H29121015   4.868   3.545   3.134 -2.5821  1.5995 -0.5849
   30PEO   H29221016   4.907   3.621   3.302  0.9157  0.6312  0.1467
   30PEO   O29321017   4.809   3.734   3.175  0.5793 -0.4269  0.4332
   30PEO   H29421018   4.648   3.609   3.197  1.2056 -1.9780  1.6703
   30PEO   H29521019   4.593   3.773   3.179 -1.2630 -0.8326  1.7437
   30PEO   C29621020   4.671   3.712   3.227  0.0559 -1.0055 -0.4846
   30PEO   C29721021   4.653   3.717   3.380 -0.3823 -0.5839 -0.0090
   30PEO   H29821022   4.569   3.651   3.406 -0.2899 -1.2509 -1.3417
   30PEO   H29921023   4.742   3.671   3.425 -0.7862 -1.2194  0.1640
   30PEO   O29A21024   4.636   3.856   3.426 -0.3700 -0.1805  0.0948
   30PEO   H29B21025   4.543   3.829   3.621  0.9173 -0.9575 -0.6815
   30PEO   H29C21026   4.592   3.984   3.570  0.1967  0.7456 -0.4581
   30PEO   C29D21027   4.624   3.879   3.564  0.7348  0.8368  0.5322
   30PEO   C29E21028   4.754   3.870   3.643  0.1263 -0.1366  0.2823
   30PEO   H29F21029   4.832   3.915   3.580  0.2980 -0.6124  0.1484
   30PEO   H2A021030   4.735   3.928   3.734  1.3474  0.7002  0.0130
   30PEO   O2A121031   4.796   3.728   3.674 -0.0403  0.4770  0.2759
   30PEO   H2A221032   4.846   3.759   3.871  2.8157  0.3812  1.2060
   30PEO   H2A321033   4.977   3.790   3.762 -1.9382  2.0892 -1.2413
   30PEO   C2A421034   4.890   3.724   3.776 -0.4385  0.1995 -0.3594
   30PEO   C2A521035   4.934   3.582   3.792  0.0736 -0.2007 -0.5600
   30PEO   H2A621036   4.925   3.535   3.693 -2.7014 -0.4139 -0.2699
   30PEO   H2A721037   5.040   3.565   3.817 -0.0566 -1.1410 -0.6229
   30PEO   O2A821038   4.855   3.522   3.892  0.5528 -0.9240  0.5634
   30PEO   H2A921039   4.991   3.376   3.949  1.1626 -1.5079 -2.7622
   30PEO   H2AA21040   4.891   3.340   3.816  0.4337  0.7419 -0.1478
   30PEO   C2AB21041   4.887   3.388   3.915  0.2762  0.1757  0.1252
   30PEO   C2AC21042   4.802   3.330   4.027  0.5080  0.3837  0.3389
   30PEO   H2AD21043   4.695   3.354   4.027  0.6445  1.0690  1.1363
   30PEO   H2AE21044   4.798   3.220   4.020 -0.7004  0.4839 -1.1445
   30PEO   O2AF21045   4.861   3.375   4.147  0.6549  0.6366 -0.1454
   30PEO   H2B021046   4.767   3.231   4.268 -1.2212 -0.5931  2.4560
   30PEO   H2B121047   4.694   3.395   4.260 -0.9357 -1.0316  2.5617
   30PEO   C2B221048   4.788   3.339   4.260 -0.7201 -0.8033  0.1778
   30PEO   C2B321049   4.859   3.390   4.386 -0.1002 -0.7243 -0.6220
   30PEO   H2B421050   4.883   3.497   4.379 -0.9095 -0.3373  1.7811
   30PEO   H2B521051   4.795   3.370   4.473 -0.5417  0.0633 -0.7570
   30PEO   O2B621052   4.982   3.329   4.407  0.2173  0.1697  0.1796
   30PEO   H2B721053   5.009   3.367   4.611  0.8586 -3.8021  0.1376
   30PEO   H2B821054   5.080   3.488   4.490  1.6340 -0.6087  0.3648
   30PEO   C2B921055   5.064   3.383   4.518 -0.3019 -0.4855 -0.1203
   30PEO   C2BA21056   5.202   3.316   4.525  0.8328  0.0763  0.6751
   30PEO   H2BB21057   5.253   3.350   4.616  0.6757  0.7288  0.5234
   30PEO   H2BC21058   5.204   3.206   4.519 -0.2172  0.0720 -0.0217
   30PEO   O2BD21059   5.271   3.364   4.410 -0.4262 -0.3224  0.5114
   30PEO   H2BE21060   5.209   3.358   4.336  0.0742  0.9396 -0.0349
   31PEO   H00121061   6.718   2.421   2.199 -1.8054  0.4896 -1.0711
   31PEO   H00221062   6.653   2.284   2.102  1.5309 -1.2568 -2.4652
   31PEO   H00321063   6.817   2.272   2.155 -2.9050 -2.5059  1.7474
   31PEO   C00421064   6.742   2.345   2.123  0.1587  0.0692 -0.1068
   31PEO   C00521065   6.768   2.416   1.989 -0.2094  0.0358  0.2429
   31PEO   H00621066   6.681   2.478   1.960  1.0001  2.0933  0.7747
   31PEO   H00721067   6.844   2.492   2.012 -1.4961  1.4118  0.1371
   31PEO   O00821068   6.809   2.325   1.883  0.6415  0.5692  0.1157
   31PEO   H00921069   6.931   2.468   1.789 -1.3268  0.4096  2.3476
   31PEO   H00A21070   6.773   2.435   1.709  1.3941  1.3015 -0.3490
   31PEO   C00B21071   6.857   2.390   1.765  0.1868 -0.4701  0.1384
   31PEO   C00C21072   6.915   2.282   1.673  0.6165 -0.0584 -0.3326
   31PEO   H00D21073   6.838   2.212   1.636  0.8684 -0.0777 -0.8199
   31PEO   H00E21074   6.947   2.326   1.578  0.4941 -0.4311 -0.5504
   31PEO   O00F21075   7.013   2.196   1.729  0.1900  0.0447 -0.0540
   31PEO   H01021076   7.187   2.113   1.648 -0.4165 -4.4011  1.5355
   31PEO   H01121077   7.042   2.136   1.537  1.9686  2.5255 -0.3975
   31PEO   C01221078   7.077   2.113   1.638 -0.4608 -0.1166 -0.0065
   31PEO   C01321079   7.054   1.969   1.672 -1.2894 -0.2232 -0.4052
   31PEO   H01421080   7.122   1.918   1.602  0.9104  2.0344 -0.0459
   31PEO   H01521081   7.093   1.949   1.773  1.6107  3.7480 -0.5254
   31PEO   O01621082   6.920   1.935   1.652 -0.5765 -0.4520  0.6311
   31PEO   H01721083   6.866   1.802   1.811  0.0796 -1.4026  0.7165
   31PEO   H01821084   6.977   1.720   1.703 -1.4793 -1.2265  1.5314
   31PEO   C01921085   6.898   1.796   1.706 -0.3393  0.0508  0.4868
   31PEO   C01A21086   6.786   1.743   1.618  0.0528  0.1128  0.6577
   31PEO   H01B21087   6.751   1.640   1.635 -0.8081  0.2338 -0.2590
   31PEO   H01C21088   6.699   1.810   1.620  0.2280  0.8254 -3.8332
   31PEO   O01D21089   6.829   1.732   1.485 -0.0996 -0.0382  0.7133
   31PEO   H01E21090   6.714   1.721   1.314 -0.8042  0.6346  0.6235
   31PEO   H01F21091   6.665   1.608   1.452  1.6736  0.5472  2.5529
   31PEO   C02021092   6.747   1.652   1.393  0.0867  0.2412 -0.0763
   31PEO   C02121093   6.845   1.544   1.339  0.6000  0.6545  0.1052
   31PEO   H02221094   6.907   1.512   1.424  0.7507 -1.0256 -0.6010
   31PEO   H02321095   6.782   1.457   1.316  1.2459  0.3270 -0.4187
   31PEO   O02421096   6.921   1.594   1.229 -0.3881 -0.1150 -0.0049
   31PEO   H02521097   6.953   1.409   1.141  0.6138 -1.5758  0.8174
   31PEO   H02621098   7.084   1.472   1.246 -0.9289 -2.7602  0.1410
   31PEO   C02721099   7.007   1.499   1.173 -0.0365 -0.8135 -0.1607
   31PEO   C02821100   7.088   1.539   1.044 -0.3590 -0.1127  0.3864
   31PEO   H02921101   7.132   1.446   1.005 -2.9996 -1.0241 -0.6470
   31PEO   H02A21102   7.023   1.580   0.965  0.5490 -1.0951 -0.9061
   31PEO   O02B21103   7.187   1.627   1.093  0.6072 -0.3960 -0.3219
   31PEO   H02C21104   7.219   1.757   0.920 -1.7007 -0.2497 -0.5352
   31PEO   H02D21105   7.307   1.604   0.915  1.3882  2.1404 -1.5966
   31PEO   C02E21106   7.269   1.681   0.983 -0.8610  0.2548 -0.5712
   31PEO   C02F21107   7.390   1.755   1.057  0.0561 -0.0188  0.8386
   31PEO   H03021108   7.446   1.823   0.991 -0.0259 -0.2698  0.5121
   31PEO   H03121109   7.352   1.813   1.143 -3.0389  0.0163 -0.4517
   31PEO   O03221110   7.471   1.650   1.098 -0.5259 -0.7556  0.1991
   31PEO   H03321111   7.553   1.731   1.272  0.7511  2.2434 -0.4489
   31PEO   H03421112   7.643   1.746   1.108  0.1127  0.3574 -0.0051
   31PEO   C03521113   7.584   1.685   1.178  0.6463  0.3220  0.4180
   31PEO   C03621114   7.669   1.549   1.183 -0.4298 -0.1098 -0.2858
   31PEO   H03721115   7.674   1.498   1.085  0.0757  1.2302 -0.9866
   31PEO   H03821116   7.778   1.562   1.192 -0.5111  0.9999 -0.6792
   31PEO   O03921117   7.626   1.459   1.287 -0.1831 -0.7776 -0.2066
   31PEO   H03A21118   7.811   1.404   1.374 -1.3743 -2.1312  3.6216
   31PEO   H03B21119   7.749   1.292   1.245  0.2904 -2.0745 -0.1714
   31PEO   C03C21120   7.721   1.358   1.328  0.1436 -1.0186 -1.0345
   31PEO   C03D21121   7.661   1.284   1.445 -0.2276 -0.6864 -0.4193
   31PEO   H03E21122   7.740   1.242   1.509  0.3276 -0.8079 -1.1666
   31PEO   H03F21123   7.606   1.353   1.510 -1.5720 -2.2076  0.1229
   31PEO   O04021124   7.577   1.178   1.406 -0.6825  0.1588  0.2842
   31PEO   H04121125   7.628   1.069   1.580 -1.1295 -1.4908  1.0772
   31PEO   H04221126   7.497   1.004   1.479  1.4815 -0.3912 -0.1394
   31PEO   C04321127   7.540   1.097   1.518  0.0311  0.2142  0.0986
   31PEO   C04421128   7.445   1.175   1.609  0.3043  0.7353 -0.2488
   31PEO   H04521129   7.398   1.245   1.539  1.0818  1.2356 -0.2727
   31PEO   H04621130   7.363   1.120   1.658 -0.0939  0.7132 -0.9170
   31PEO   O04721131   7.534   1.236   1.707 -0.5982 -0.3870  0.1905
   31PEO   H04821132   7.398   1.303   1.853  0.1523  0.4384 -0.0999
   31PEO   H04921133   7.431   1.417   1.735  0.4206 -1.6251 -2.2924
   31PEO   C04A21134   7.484   1.341   1.795  0.4373  0.2566  0.1976
   31PEO   C04B21135   7.605   1.396   1.885  0.3812 -0.0303 -0.2044
   31PEO   H04C21136   7.593   1.351   1.984  0.7428  2.2745  0.9447
   31PEO   H04D21137   7.696   1.365   1.831 -0.1078 -4.5914  1.1876
   31PEO   O04E21138   7.595   1.541   1.893 -0.3142 -0.7892 -0.2105
   31PEO   H04F21139   7.774   1.550   1.988 -0.7026 -2.5285  0.7529
   31PEO   H05021140   7.645   1.551   2.091  0.1296  0.8043  0.4280
   31PEO   C05121141   7.673   1.593   1.993  0.2254 -0.1071  0.0541
   31PEO   C05221142   7.667   1.747   2.014 -0.5954  0.0949  0.4631
   31PEO   H05321143   7.739   1.784   2.089  1.3576  2.6058 -2.4210
   31PEO   H05421144   7.711   1.781   1.919 -2.1864 -0.9640 -0.6984
   31PEO   O05521145   7.536   1.785   2.046  0.4260 -0.1593  0.5689
   31PEO   H05621146   7.610   1.969   2.086 -0.1778 -2.0180  1.5337
   31PEO   H05721147   7.434   1.957   2.117 -0.3055  1.2327 -1.7164
   31PEO   C05821148   7.515   1.927   2.049 -0.1102 -0.3050 -0.8288
   31PEO   C05921149   7.480   1.981   1.914  0.4632  0.5987 -0.0257
   31PEO   H05A21150   7.416   1.910   1.861 -1.7051  1.9428  0.6847
   31PEO   H05B21151   7.429   2.077   1.927 -0.6448  0.0146  0.0564
   31PEO   O05C21152   7.602   2.008   1.844  0.2648  0.0253 -0.0884
   31PEO   H05D21153   7.666   2.117   1.668 -1.7136  3.4741  0.5596
   31PEO   H05E21154   7.509   2.155   1.733 -1.2563 -1.7476  2.5531
   31PEO   C05F21155   7.581   2.073   1.723  0.3141 -0.2718  1.0579
   31PEO   C06021156   7.501   1.975   1.625 -0.9347 -0.3860  0.0583
   31PEO   H06121157   7.430   1.911   1.680 -0.0393 -1.0698  0.4525
   31PEO   H06221158   7.468   2.031   1.537  2.0535  1.0229 -0.2789
   31PEO   O06321159   7.591   1.884   1.568 -0.0022 -0.2923 -0.2725
   31PEO   H06421160   7.629   1.783   1.737  1.0159 -3.4029  0.0011
   31PEO   H06521161   7.772   1.874   1.669 -1.5073  1.1289  1.7896
   31PEO   C06621162   7.681   1.816   1.646 -0.4721  0.0427  0.2373
   31PEO   C06721163   7.726   1.693   1.568 -0.4915 -1.1479  0.9460
   31PEO   H06821164   7.775   1.618   1.632 -1.2861 -1.3461  1.3340
   31PEO   H06921165   7.640   1.645   1.519 -0.3724 -1.2842  0.8686
   31PEO   O06A21166   7.816   1.739   1.461  0.2574 -0.0504 -0.2292
   31PEO   H06B21167   7.987   1.667   1.545 -1.5858 -1.0616 -0.0073
   31PEO   H06C21168   7.956   1.833   1.579  0.0567 -3.1260  2.0620
   31PEO   C06D21169   7.955   1.760   1.496 -0.1172 -0.6618 -0.2452
   31PEO   C06E21170   8.038   1.796   1.374  0.0204 -0.2746 -0.9454
   31PEO   H06F21171   8.018   1.897   1.336  2.2095 -0.0090 -1.5257
   31PEO   H07021172   8.145   1.790   1.398  0.2757 -0.0501 -2.0163
   31PEO   O07121173   8.014   1.702   1.267  0.3544 -0.6345  0.4287
   31PEO   H07221174   8.169   1.768   1.153  0.9124 -0.7830 -0.4080
   31PEO   H07321175   8.013   1.851   1.119  0.6196 -0.3550  0.7270
   31PEO   C07421176   8.060   1.754   1.141  0.7552 -0.3653  0.3884
   31PEO   C07521177   8.045   1.641   1.034 -0.1391 -0.8191 -0.9538
   31PEO   H07621178   8.099   1.664   0.941  2.6425  0.1150  0.7858
   31PEO   H07721179   8.105   1.564   1.084  1.6962  1.1177 -0.0209
   31PEO   O07821180   7.909   1.623   0.994  0.3327 -0.2351  0.5364
   31PEO   H07921181   7.911   1.646   0.780 -0.7176 -2.8126 -3.6717
   31PEO   H07A21182   7.768   1.572   0.865 -0.1449  0.6489  0.8232
   31PEO   C07B21183   7.878   1.578   0.860 -0.1635  0.2465 -0.6225
   31PEO   C07C21184   7.937   1.441   0.825  0.6512 -0.0448 -0.2289
   31PEO   H07D21185   7.909   1.423   0.721 -0.1311 -2.0314  0.2811
   31PEO   H07E21186   8.047   1.444   0.825  0.7556 -2.1753 -0.1366
   31PEO   O07F21187   7.889   1.337   0.916 -0.2944  0.0640 -0.6067
   31PEO   H08021188   7.964   1.219   1.081 -1.7190  1.6250  1.4632
   31PEO   H08121189   8.065   1.361   1.028 -0.8296  1.1962 -0.3778
   31PEO   C08221190   8.000   1.279   0.996  0.5125 -0.4259  0.8395
   31PEO   C08321191   8.096   1.190   0.908  0.0185  0.2180 -0.4179
   31PEO   H08421192   8.123   1.242   0.815  1.1376  0.3116 -0.0506
   31PEO   H08521193   8.193   1.186   0.959  0.8697  1.9439 -1.7685
   31PEO   O08621194   8.037   1.063   0.891 -0.2380 -0.0981 -0.3189
   31PEO   H08721195   8.230   0.983   0.894  0.7737  0.9058 -1.9909
   31PEO   H08821196   8.156   0.987   0.735 -1.2817 -1.9200 -0.2662
   31PEO   C08921197   8.134   0.974   0.842 -0.4994  0.6174  0.2674
   31PEO   C08A21198   8.081   0.821   0.836  0.3610  0.2307 -0.4608
   31PEO   H08B21199   8.171   0.761   0.814  0.3482 -0.6355  1.5849
   31PEO   H08C21200   8.053   0.785   0.936  2.9759  0.2938  0.3878
   31PEO   O08D21201   7.968   0.813   0.742  0.3553 -0.0248 -0.0289
   31PEO   H08E21202   7.879   0.633   0.799  1.4108  0.5748  0.8486
   31PEO   H08F21203   8.013   0.625   0.671  0.6439  1.3836 -0.0996
   31PEO   C09021204   7.926   0.679   0.711 -0.0322  0.3234 -0.0948
   31PEO   C09121205   7.818   0.692   0.605  0.1314 -0.9125  0.5514
   31PEO   H09221206   7.850   0.761   0.525  0.1801 -1.0135  0.4836
   31PEO   H09321207   7.789   0.594   0.563 -1.3158 -1.7218  3.2287
   31PEO   O09421208   7.707   0.747   0.682 -0.0905 -0.3565 -0.0441
   31PEO   H09521209   7.585   0.674   0.534 -0.6162 -1.1491  1.4880
   31PEO   H09621210   7.611   0.853   0.528  0.6627  0.2955 -0.2319
   31PEO   C09721211   7.599   0.766   0.594  0.6096  0.0718 -0.5376
   31PEO   C09821212   7.475   0.775   0.681 -0.0179 -0.5247  0.5546
   31PEO   H09921213   7.390   0.800   0.617  0.7056  0.2516 -0.1381
   31PEO   H09A21214   7.448   0.680   0.728 -1.1091  0.5326  2.1729
   31PEO   O09B21215   7.488   0.876   0.784  0.6274  0.6117 -0.2353
   31PEO   H09C21216   7.331   0.993   0.723  1.2367  1.0933 -0.2782
   31PEO   H09D21217   7.385   1.026   0.891  0.0329  0.3751 -0.7221
   31PEO   C09E21218   7.368   0.947   0.816 -0.7432 -0.1108 -0.0442
   31PEO   C09F21219   7.256   0.860   0.873  0.1807 -0.0375 -0.4125
   31PEO   H0A021220   7.184   0.927   0.921 -0.6833 -0.8771 -0.5185
   31PEO   H0A121221   7.206   0.800   0.795 -1.1506  1.4726 -0.7647
   31PEO   O0A221222   7.305   0.785   0.983 -0.3770  0.3012 -0.0517
   31PEO   H0A321223   7.195   0.610   0.939 -2.0446 -3.0422  2.5215
   31PEO   H0A421224   7.109   0.712   1.053  0.1901  0.7085  0.6150
   31PEO   C0A521225   7.210   0.680   1.022 -0.1846  0.5331 -0.4755
   31PEO   C0A621226   7.280   0.600   1.135  0.7573  0.0308  0.1202
   31PEO   H0A721227   7.236   0.500   1.128  0.9177  0.0700 -4.0387
   31PEO   H0A821228   7.388   0.598   1.116  0.4643 -1.2879 -1.5468
   31PEO   O0A921229   7.252   0.651   1.267 -0.2799 -0.1641  0.5131
   31PEO   H0AA21230   7.174   0.830   1.256  1.0808  2.6858 -0.3160
   31PEO   H0AB21231   7.353   0.840   1.270  0.1716 -0.1951 -1.0853
   31PEO   C0AC21232   7.263   0.790   1.308  0.0416  0.9636  0.2332
   31PEO   C0AD21233   7.258   0.805   1.464 -0.3073  0.0230 -0.7230
   31PEO   H0AE21234   7.273   0.909   1.496 -3.2147  0.1257  0.6693
   31PEO   H0AF21235   7.163   0.766   1.504  0.7194 -3.4747 -1.3934
   31PEO   O0B021236   7.369   0.736   1.528  0.2301  0.6039 -0.2383
   31PEO   H0B121237   7.320   0.714   1.726 -0.4513 -1.5552 -2.4402
   31PEO   H0B221238   7.389   0.874   1.693 -0.7882 -0.2334 -1.9348
   31PEO   C0B321239   7.399   0.767   1.672  0.4705 -0.5080 -0.1920
   31PEO   C0B421240   7.526   0.708   1.721 -0.6899 -0.2034 -0.1802
   31PEO   H0B521241   7.527   0.704   1.831  1.3182  2.8366  0.0471
   31PEO   H0B621242   7.543   0.608   1.680  1.8782 -0.0533  0.3712
   31PEO   O0B721243   7.632   0.779   1.671  0.6594 -0.2296 -0.6144
   31PEO   H0B821244   7.769   0.619   1.662 -0.1552 -2.2592  3.1068
   31PEO   H0B921245   7.769   0.721   1.814  0.3692 -0.2640 -0.5207
   31PEO   C0BA21246   7.759   0.719   1.705  0.2991 -0.5175 -0.5102
   31PEO   C0BB21247   7.866   0.809   1.651  0.6475 -0.9289  0.5857
   31PEO   H0BC21248   7.829   0.912   1.643  0.1148 -1.0252  1.6217
   31PEO   H0BD21249   7.962   0.812   1.705  2.8490 -0.0376 -3.0439
   31PEO   O0BE21250   7.892   0.776   1.516  0.3941 -0.1811  0.1122
   31PEO   H0BF21251   7.998   0.652   1.382 -1.4294  1.4486 -0.5065
   31PEO   H0C021252   7.886   0.567   1.484  0.2169 -0.6795  0.3197
   31PEO   C0C121253   7.958   0.650   1.484 -0.1658 -0.3431  0.0003
   31PEO   C0C221254   8.079   0.601   1.568  0.4580 -0.3785  0.3273
   31PEO   H0C321255   8.136   0.526   1.510  0.4196  0.6832 -1.1475
   31PEO   H0C421256   8.159   0.675   1.581  0.0863 -0.1980  1.7640
   31PEO   O0C521257   8.039   0.542   1.690 -0.5697 -0.0932  0.4157
   31PEO   H0C621258   8.226   0.579   1.762 -1.1592  0.7171 -1.3937
   31PEO   H0C721259   8.191   0.401   1.730 -2.9054 -0.1906 -2.2346
   31PEO   C0C821260   8.151   0.498   1.763 -0.4961  0.0594  0.3663
   31PEO   C0C921261   8.121   0.480   1.913  0.4751 -0.0170 -0.1088
   31PEO   H0CA21262   8.068   0.385   1.925  0.3047  0.2474  1.3273
   31PEO   H0CB21263   8.223   0.468   1.953  0.4322 -0.1817 -0.0511
   31PEO   O0CC21264   8.044   0.595   1.970 -0.1439 -0.2990 -0.5238
   31PEO   H0CD21265   8.168   0.758   1.981 -0.4815  0.9129  1.3095
   31PEO   H0CE21266   8.212   0.637   2.087 -1.2747 -1.5115  0.3338
   31PEO   C0CF21267   8.120   0.682   2.046 -0.5106 -0.1207  0.1210
   31PEO   C0D021268   8.030   0.757   2.148  0.4612  0.0083  0.0372
   31PEO   H0D121269   8.087   0.848   2.174 -1.9255  1.3936  0.7076
   31PEO   H0D221270   7.933   0.780   2.102  1.8870  3.3651 -1.6975
   31PEO   O0D321271   8.015   0.677   2.270  0.5877  0.5602  0.6117
   31PEO   H0D421272   7.921   0.522   2.377 -3.2177 -0.8292 -0.4573
   31PEO   H0D521273   7.990   0.479   2.220 -0.0495 -1.0633  0.5934
   31PEO   C0D621274   7.935   0.558   2.274  0.5897 -0.2741  0.1212
   31PEO   C0D721275   7.796   0.598   2.226 -0.7469  0.3765  0.1242
   31PEO   H0D821276   7.802   0.609   2.117 -1.1955 -1.2627 -0.0948
   31PEO   H0D921277   7.728   0.511   2.231 -1.3149  0.6926 -1.5654
   31PEO   O0DA21278   7.758   0.715   2.292 -0.3873  0.5167  0.4261
   31PEO   H0DB21279   7.580   0.821   2.349  0.9520 -0.9402  1.3226
   31PEO   H0DC21280   7.553   0.660   2.282  2.7398 -2.0644  1.0750
   31PEO   C0DD21281   7.617   0.750   2.273 -0.4724  0.2592 -0.5975
   31PEO   C0DE21282   7.589   0.804   2.125  0.2730  0.5612 -0.0733
   31PEO   H0DF21283   7.653   0.753   2.052 -2.2371 -1.2150 -1.1490
   31PEO   H0E021284   7.483   0.793   2.098 -0.1586  0.0179  1.7027
   31PEO   O0E121285   7.612   0.947   2.120  0.0847  0.7073 -0.1693
   31PEO   H0E221286   7.544   1.091   1.978  0.2234 -0.1036  0.7443
   31PEO   H0E321287   7.585   0.929   1.908  0.2797 -0.7308  1.1362
   31PEO   C0E421288   7.607   1.001   1.989  0.5690  0.0900  0.3346
   31PEO   C0E521289   7.745   1.050   1.956  0.3547 -0.3449 -0.0212
   31PEO   H0E621290   7.823   0.973   1.964  0.2547 -0.6233 -1.5001
   31PEO   H0E721291   7.742   1.094   1.856 -0.6195 -2.0863 -0.8022
   31PEO   O0E821292   7.780   1.148   2.055 -0.4977  0.5915 -0.6878
   31PEO   H0E921293   7.988   1.091   2.033  0.0414 -1.7094  0.2724
   31PEO   H0EA21294   7.912   1.079   2.188 -1.5271 -2.4174 -1.4039
   31PEO   C0EB21295   7.917   1.143   2.099  0.1751 -0.8560 -0.2404
   31PEO   C0EC21296   7.961   1.288   2.129 -0.1617  0.8533 -0.1695
   31PEO   H0ED21297   8.069   1.276   2.146 -0.0634  1.6933 -0.1677
   31PEO   H0EE21298   7.944   1.350   2.039  0.7767 -0.9034 -1.6416
   31PEO   O0EF21299   7.891   1.335   2.246  0.1131  0.4255 -0.0579
   31PEO   H0F021300   7.899   1.546   2.194  3.7503 -1.1604 -1.3879
   31PEO   H0F121301   8.019   1.493   2.306 -0.4046 -1.0378 -0.1029
   31PEO   C0F221302   7.914   1.476   2.277 -0.7118 -0.2156  0.5005
   31PEO   C0F321303   7.823   1.504   2.395 -0.4278  0.7597 -0.7178
   31PEO   H0F421304   7.832   1.613   2.408  0.4846  0.6152 -0.0456
   31PEO   H0F521305   7.716   1.506   2.370 -1.1377 -1.0205  1.7790
   31PEO   O0F621306   7.866   1.428   2.514 -0.5179  0.4176  0.2884
   31PEO   H0F721307   7.723   1.499   2.631  0.0885 -1.1252  1.3270
   31PEO   H0F821308   7.870   1.590   2.644  0.9856 -0.5976 -0.1146
   31PEO   C0F921309   7.832   1.487   2.639  0.2647 -0.3529  0.3151
   31PEO   C0FA21310   7.878   1.391   2.751  0.7455 -0.1110 -0.2363
   31PEO   H0FB21311   7.829   1.295   2.728  1.6807 -0.2952 -1.4976
   31PEO   H0FC21312   7.987   1.385   2.762  0.8850 -0.3805 -1.5903
   31PEO   O0FD21313   7.830   1.457   2.876  0.7715 -0.1225  0.3509
   31PEO   H0FE21314   7.975   1.383   3.002 -0.6013 -2.4966 -1.6565
   31PEO   H0FF21315   7.827   1.279   2.979 -1.0252 -0.3828 -0.1542
   31PEO   C10021316   7.866   1.381   2.992 -0.8720 -0.4994  0.3311
   31PEO   C10121317   7.807   1.449   3.119 -0.9441  0.2800 -0.7904
   31PEO   H10221318   7.698   1.437   3.120 -0.7439 -2.2446 -1.0439
   31PEO   H10321319   7.837   1.398   3.211 -0.2604 -0.3389 -1.3364
   31PEO   O10421320   7.861   1.577   3.139  0.1111  0.4169  0.4622
   31PEO   H10521321   7.714   1.644   3.021 -0.8790  1.2106  4.0470
   31PEO   H10621322   7.885   1.653   2.960 -0.3973 -0.6892 -0.2612
   31PEO   C10721323   7.818   1.672   3.045  0.5101 -0.0938  0.3442
   31PEO   C10821324   7.855   1.817   3.079 -0.1709 -0.8679  0.0808
   31PEO   H10921325   7.810   1.885   3.005 -0.9423  0.1134  1.3904
   31PEO   H10A21326   7.809   1.846   3.175  0.5393 -0.1277  0.2150
   31PEO   O10B21327   7.997   1.835   3.092 -0.4724  0.2095  0.0626
   31PEO   H10C21328   8.016   1.695   3.245  0.4941 -0.4957 -0.7974
   31PEO   H10D21329   7.991   1.860   3.304  2.7468 -1.1138  2.4843
   31PEO   C10E21330   8.040   1.801   3.225  0.3161 -0.2640  0.1862
   31PEO   C10F21331   8.187   1.839   3.241 -0.3669 -0.2460  0.0060
   31PEO   H11021332   8.236   1.785   3.322 -0.1576  1.4447  1.0510
   31PEO   H11121333   8.236   1.805   3.149  0.8951 -0.3868  0.7172
   31PEO   O11221334   8.206   1.982   3.265  0.5798  0.1971 -0.8363
   31PEO   H11321335   8.074   2.065   3.134 -1.0597  3.9165  0.5846
   31PEO   H11421336   8.242   2.042   3.073  2.6623 -1.6284  2.2730
   31PEO   C11521337   8.181   2.073   3.159 -0.3613 -0.1624 -0.2173
   31PEO   C11621338   8.230   2.212   3.206  0.5564  0.4036 -0.3353
   31PEO   H11721339   8.339   2.214   3.223  0.2813  0.6428  1.5660
   31PEO   H11821340   8.227   2.280   3.120  3.6196  1.0463 -0.0526
   31PEO   O11921341   8.155   2.266   3.315 -0.2938 -0.3766  0.1471
   31PEO   H11A21342   8.169   2.450   3.233  2.5528 -1.5897 -1.5336
   31PEO   H11B21343   8.293   2.395   3.352 -0.5970  0.6457  2.1245
   31PEO   C11C21344   8.186   2.398   3.328 -0.1937  0.0478 -0.0279
   31PEO   C11D21345   8.115   2.473   3.452  0.5705  0.3159  0.4697
   31PEO   H11E21346   8.145   2.441   3.553 -0.2052  1.7572  1.2036
   31PEO   H11F21347   8.127   2.583   3.447 -1.0483  0.4617 -2.4307
   31PEO   O12021348   7.973   2.456   3.445  0.6731 -0.1656  0.3974
   31PEO   H12121349   7.923   2.619   3.575 -0.0129  0.6074 -0.4459
   31PEO   H12221350   7.960   2.469   3.654 -1.0160 -1.8026  0.4637
   31PEO   C12321351   7.910   2.510   3.565 -0.0617  0.4738  0.8959
   31PEO   C12421352   7.760   2.462   3.556 -0.6047  0.6327  0.0508
   31PEO   H12521353   7.758   2.357   3.588 -0.8750  0.3785 -0.7690
   31PEO   H12621354   7.707   2.528   3.625 -0.4019 -1.5252  2.3979
   31PEO   O12721355   7.704   2.488   3.426 -0.2789  0.1218 -0.1250
   31PEO   H12821356   7.518   2.411   3.503 -0.1663 -1.5364 -0.1398
   31PEO   H12921357   7.586   2.328   3.368 -0.3621 -0.9219  0.7371
   31PEO   C12A21358   7.579   2.428   3.412  0.4664 -0.7101  0.4214
   31PEO   C12B21359   7.489   2.512   3.318  0.3097  0.1290  0.4049
   31PEO   H12C21360   7.483   2.482   3.212 -0.3240 -1.1435  0.7757
   31PEO   H12D21361   7.393   2.485   3.363 -0.6854 -0.3430 -1.8494
   31PEO   O12E21362   7.523   2.655   3.330  0.4460 -0.4580  0.4964
   31PEO   H12F21363   7.438   2.842   3.359 -2.6917  0.4353  0.5106
   31PEO   H13021364   7.322   2.705   3.369 -0.5905  0.5045  0.4654
   31PEO   C13121365   7.410   2.745   3.316 -0.5613 -0.0421  0.0949
   31PEO   C13221366   7.384   2.776   3.169 -0.0419  0.0095  0.5374
   31PEO   H13321367   7.294   2.838   3.176 -0.5391 -0.4746 -1.2611
   31PEO   H13421368   7.471   2.826   3.123  0.9360 -0.3106  1.9396
   31PEO   O13521369   7.336   2.660   3.103  0.4727 -0.7201 -0.6387
   31PEO   H13621370   7.137   2.690   3.138 -1.2260 -0.3301  4.4891
   31PEO   H13721371   7.214   2.583   3.253 -1.2866  0.7628  0.2295
   31PEO   C13821372   7.213   2.610   3.146  0.3757  0.4430  0.1016
   31PEO   C13921373   7.173   2.487   3.070  0.2837 -0.6789 -0.7278
   31PEO   H13A21374   7.241   2.401   3.068  0.2840 -0.6711 -2.8513
   31PEO   H13B21375   7.082   2.451   3.121 -0.6346  1.5253 -0.6677
   31PEO   O13C21376   7.142   2.526   2.937  0.0085  0.3143 -0.1126
   31PEO   H13D21377   7.014   2.366   2.925 -1.7291  1.2498 -1.8819
   31PEO   H13E21378   7.160   2.375   2.808  3.0530  3.0499  0.6600
   31PEO   C13F21379   7.079   2.428   2.861 -0.0537  0.3945 -1.0907
   31PEO   C14021380   7.000   2.497   2.754  0.1423 -0.7277  0.4154
   31PEO   H14121381   7.069   2.566   2.704  1.0237 -3.2558 -2.1479
   31PEO   H14221382   6.951   2.428   2.683 -2.6077  1.0331  0.4696
   31PEO   O14321383   6.887   2.571   2.824 -0.2968  0.1048  0.2530
   31PEO   H14421384   6.727   2.699   2.790 -0.4316 -3.3514  1.8554
   31PEO   H14521385   6.798   2.647   2.644  0.2998  1.4869  0.0190
   31PEO   C14621386   6.825   2.676   2.746  0.0441  0.7752  0.2961
   31PEO   C14721387   6.924   2.796   2.730  0.8804 -0.4380  0.0195
   31PEO   H14821388   6.863   2.887   2.721 -0.4289 -1.3212 -0.2766
   31PEO   H14921389   6.971   2.815   2.828 -1.5838  3.1749  0.7040
   31PEO   O14A21390   7.015   2.787   2.624  0.1205  0.6972  0.5404
   31PEO   H14B21391   7.142   2.882   2.747  1.0290  0.2823 -0.8681
   31PEO   H14C21392   7.136   2.969   2.596  1.2420  0.4061  1.0987
   31PEO   C14D21393   7.135   2.867   2.638 -0.4999 -0.3950 -0.7059
   31PEO   C14E21394   7.249   2.787   2.581  0.6371  0.0392  0.3282
   31PEO   H14F21395   7.342   2.821   2.628  0.7280 -2.8236  2.4896
   31PEO   H15021396   7.228   2.681   2.600 -0.3866  0.5946  2.6607
   31PEO   O15121397   7.235   2.817   2.435  0.1642 -0.6399 -0.7027
   31PEO   H15221398   7.312   2.656   2.323 -0.8267  0.6599  0.0276
   31PEO   H15321399   7.437   2.768   2.395  0.9357 -0.1958 -1.4184
   31PEO   C15421400   7.339   2.760   2.345 -0.0384  0.3971  0.3119
   31PEO   C15521401   7.341   2.815   2.204 -0.0717  0.1456  0.2120
   31PEO   H15621402   7.345   2.925   2.207 -3.3705  0.3494  1.4879
   31PEO   H15721403   7.414   2.767   2.138 -2.5729 -1.7465 -1.3836
   31PEO   O15821404   7.222   2.763   2.135  0.4300 -0.1494 -0.3230
   31PEO   H15921405   7.324   2.754   1.950  0.5852  0.1532  1.4323
   31PEO   H15A21406   7.218   2.900   1.987 -1.0692  0.7556 -0.1408
   31PEO   C15B21407   7.228   2.790   1.988 -0.1777  0.8131 -0.9947
   31PEO   C15C21408   7.105   2.720   1.922  0.9399  0.2429  0.0772
   31PEO   H15D21409   7.128   2.690   1.818 -0.4055 -2.1037  0.3854
   31PEO   H15E21410   7.079   2.625   1.970  0.5461  1.0391  1.4658
   31PEO   O15F21411   6.994   2.804   1.920 -0.3417  0.3363  0.5266
   31PEO   H16021412   6.819   2.686   1.925 -0.1989  0.1760  0.1926
   31PEO   H16121413   6.906   2.700   1.767  0.4699 -1.2613 -0.3878
   31PEO   C16221414   6.875   2.753   1.858 -1.0333 -0.5421 -1.2759
   31PEO   C16321415   6.791   2.872   1.804 -0.0249 -0.8473  0.0578
   31PEO   H16421416   6.857   2.935   1.742 -3.1592 -0.0900 -2.8154
   31PEO   H16521417   6.721   2.818   1.739  1.2735 -2.3896 -0.1324
   31PEO   O16621418   6.728   2.947   1.910 -0.0075  0.0121  0.1147
   31PEO   H16721419   6.863   3.101   1.879 -1.0366  2.9386  0.0792
   31PEO   H16821420   6.881   3.017   2.042  1.5772  0.4560 -0.8893
   31PEO   C16921421   6.812   3.054   1.964  0.7166  0.1495 -0.2840
   31PEO   C16A21422   6.714   3.173   2.021  0.4471  0.4525 -0.0038
   31PEO   H16B21423   6.774   3.265   2.035  1.5987 -0.5180  2.0648
   31PEO   H16C21424   6.641   3.180   1.940 -1.5551 -4.8768  0.9305
   31PEO   O16D21425   6.642   3.126   2.141 -0.0408  0.0681  0.0339
   31PEO   H16E21426   6.456   3.235   2.120 -1.6888  1.1992  1.6808
   31PEO   H16F21427   6.564   3.290   2.255 -0.6096  1.6353 -1.8230
   31PEO   C17021428   6.530   3.204   2.196 -0.0934  0.2476 -0.1760
   31PEO   C17121429   6.462   3.113   2.293 -0.7049  0.3335  0.7045
   31PEO   H17221430   6.532   3.052   2.353 -2.5002  0.0239  2.6516
   31PEO   H17321431   6.408   3.177   2.365 -1.1569  2.7323 -1.6505
   31PEO   O17421432   6.383   3.023   2.221 -0.0338 -0.1097 -0.1621
   31PEO   H17521433   6.235   2.967   2.359  1.4400 -1.7112  1.7045
   31PEO   H17621434   6.365   2.854   2.327  1.4436  1.6161 -0.4001
   31PEO   C17721435   6.298   2.926   2.279  0.3769  0.6260 -0.4475
   31PEO   C17821436   6.239   2.845   2.160 -0.3191 -0.2052 -0.5111
   31PEO   H17921437   6.292   2.856   2.064  0.5266 -2.1101 -0.3123
   31PEO   H17A21438   6.239   2.737   2.181 -1.1531  0.0049  0.7293
   31PEO   O17B21439   6.103   2.887   2.154  0.5003 -0.1215 -0.0667
   31PEO   H17C21440   6.018   2.714   2.080  0.5710 -0.1568  0.1099
   31PEO   H17D21441   6.092   2.828   1.959  0.9285 -1.2355  0.1508
   31PEO   C17E21442   6.034   2.819   2.052  0.6105 -0.1757  0.0605
   31PEO   C17F21443   5.895   2.898   2.032  0.5551  0.4839 -0.0741
   31PEO   H18021444   5.911   3.006   2.021  0.4559  0.4445 -0.6119
   31PEO   H18121445   5.868   2.866   1.931  0.6850  0.1446 -0.0026
   31PEO   O18221446   5.790   2.867   2.125  0.8599  0.7327  0.7036
   31PEO   H18321447   5.829   2.678   2.213 -0.4695  0.9438  1.4987
   31PEO   H18421448   5.764   2.673   2.040  0.0028 -1.9789  1.0118
   31PEO   C18521449   5.762   2.723   2.138 -0.3943 -0.7079  0.3655
   31PEO   C18621450   5.622   2.710   2.189  0.7822  0.6661  0.5589
   31PEO   H18721451   5.555   2.771   2.126 -0.0963 -0.8133 -0.0025
   31PEO   H18821452   5.586   2.606   2.185 -1.1303  1.2075  1.9570
   31PEO   O18921453   5.610   2.754   2.322 -0.2025 -0.2746 -0.7249
   31PEO   H18A21454   5.435   2.651   2.351 -1.0881  0.0142 -0.9091
   31PEO   H18B21455   5.416   2.827   2.321  1.4661 -0.9783 -2.0969
   31PEO   C18C21456   5.477   2.750   2.372 -0.1538 -0.6488  0.5654
   31PEO   C18D21457   5.488   2.784   2.515 -0.3692 -0.8207  0.8190
   31PEO   H18E21458   5.409   2.729   2.568 -0.2813 -0.4877  1.2994
   31PEO   H18F21459   5.579   2.754   2.567  0.2521 -4.7841 -2.1328
   31PEO   O19021460   5.467   2.924   2.524  0.4918  0.8785 -0.2705
   31PEO   H19121461   5.629   2.980   2.406  0.9274  1.5311 -0.3531
   31PEO   H19221462   5.672   2.952   2.578  0.6245 -1.4510 -1.7078
   31PEO   C19321463   5.595   2.990   2.510  0.0234 -0.3127 -0.4274
   31PEO   C19421464   5.572   3.143   2.524  0.6342 -0.0513 -0.0482
   31PEO   H19521465   5.518   3.154   2.619 -0.3283  0.1645 -0.6154
   31PEO   H19621466   5.675   3.181   2.535  0.4899 -0.0460  1.4743
   31PEO   O19721467   5.501   3.193   2.411 -0.3982 -0.5170 -0.8376
   31PEO   H19821468   5.609   3.345   2.410 -1.4466 -4.9197  4.5943
   31PEO   H19921469   5.487   3.333   2.274 -1.0662 -1.1480  0.2308
   31PEO   C19A21470   5.569   3.284   2.328 -0.0052 -0.0337 -0.3365
   31PEO   C19B21471   5.690   3.224   2.248  0.4656  0.3595 -0.3246
   31PEO   H19C21472   5.676   3.118   2.223  2.7149 -0.1770  0.4349
   31PEO   H19D21473   5.698   3.282   2.154 -1.0816  0.9802 -0.0961
   31PEO   O19E21474   5.812   3.237   2.326 -0.3693  0.3148  0.1850
   31PEO   H19F21475   5.895   3.141   2.165  1.4167 -1.9725  0.2455
   31PEO   H1A021476   5.971   3.091   2.303  1.7268  1.7205  0.0710
   31PEO   C1A121477   5.930   3.184   2.260 -0.4839  0.7169 -0.1357
   31PEO   C1A221478   6.034   3.292   2.226 -0.5310  0.5860 -0.3399
   31PEO   H1A321479   6.121   3.252   2.172  0.8927  0.2764  2.0379
   31PEO   H1A421480   5.985   3.356   2.151  1.8210  0.8244 -1.7941
   31PEO   O1A521481   6.077   3.370   2.336 -0.3234  0.5759  0.0122
   31PEO   H1A621482   6.128   3.570   2.305 -3.3507 -0.9839 -0.1726
   31PEO   H1A721483   6.211   3.467   2.197 -1.0665  1.9708 -0.0109
   31PEO   C1A821484   6.174   3.470   2.301 -0.0128  0.3935  0.4648
   31PEO   C1A921485   6.304   3.454   2.383 -0.1305  0.2792  0.1973
   31PEO   H1AA21486   6.344   3.352   2.376 -1.5704 -0.5018  2.4355
   31PEO   H1AB21487   6.374   3.528   2.342 -0.3651  1.5366  1.9312
   31PEO   O1AC21488   6.275   3.486   2.521 -1.5317 -0.6174 -0.4246
   31PEO   H1AD21489   6.454   3.544   2.616 -0.4287  0.0981  1.1798
   31PEO   H1AE21490   6.427   3.366   2.607  1.2473  1.3337 -3.0394
   31PEO   C1AF21491   6.379   3.464   2.619 -0.6843  0.2161 -0.7563
   31PEO   C1B021492   6.310   3.479   2.759 -1.0966  0.3164  0.1198
   31PEO   H1B121493   6.223   3.414   2.775 -1.8556  1.6629  1.7341
   31PEO   H1B221494   6.388   3.443   2.829 -1.6818  1.3703  1.3408
   31PEO   O1B321495   6.286   3.624   2.783  0.1793 -0.0567  0.1061
   31PEO   H1B421496   6.093   3.581   2.778  0.3721  0.1782  0.1128
   31PEO   H1B521497   6.156   3.663   2.633 -1.1221 -2.1424  0.1325
   31PEO   C1B621498   6.159   3.663   2.743 -0.0280  0.5423  0.2019
   31PEO   C1B721499   6.137   3.796   2.814  0.2339  0.9105 -0.4053
   31PEO   H1B821500   6.228   3.857   2.803  0.4968  0.4646 -0.7348
   31PEO   H1B921501   6.060   3.849   2.757 -0.2438  1.2182  0.4928
   31PEO   O1BA21502   6.099   3.771   2.953  0.3577 -0.4151 -0.0661
   31PEO   H1BB21503   5.977   3.637   2.948 -0.0288  0.4251 -2.5352
   31PEO   H1BC21504   5.902   3.783   2.889  0.6953  0.8718  0.4631
   31PEO   C1BD21505   5.969   3.745   2.967  0.5567  0.0654  0.1979
   31PEO   C1BE21506   5.923   3.785   3.104  0.1711 -0.2515 -0.6782
   31PEO   H1BF21507   5.828   3.730   3.117  0.5926 -0.4376  2.5011
   31PEO   H1C021508   5.992   3.752   3.183 -1.2313  1.3122  1.3259
   31PEO   O1C121509   5.895   3.927   3.103  0.5481 -0.7640  0.1793
   31PEO   H1C221510   6.083   3.972   3.145 -0.3721 -2.1430  0.0712
   31PEO   H1C321511   5.965   3.993   3.278 -1.0494 -0.3833 -0.3636
   31PEO   C1C421512   5.984   4.011   3.172  0.7222  0.8213  0.1191
   31PEO   C1C521513   5.961   4.167   3.138  0.0149 -0.1585  0.4930
   31PEO   H1C621514   5.852   4.170   3.127 -0.2242 -4.1723  0.4794
   31PEO   H1C721515   6.002   4.231   3.219  0.2543 -0.8325  0.9121
   31PEO   O1C821516   6.048   4.207   3.026  0.7362  0.0802 -0.6550
   31PEO   H1C921517   5.947   4.114   2.872 -0.5461 -0.4186 -0.3667
   31PEO   H1CA21518   6.077   4.020   2.927  1.1808  0.7025  0.2285
   31PEO   C1CB21519   6.051   4.125   2.907 -0.6083  0.1905 -0.3713
   31PEO   C1CC21520   6.148   4.187   2.798 -0.4779  0.2381  0.1012
   31PEO   H1CD21521   6.118   4.146   2.701 -1.4450 -0.4408  0.6614
   31PEO   H1CE21522   6.146   4.297   2.799 -0.3013  0.2993 -1.9544
   31PEO   O1CF21523   6.274   4.146   2.835 -0.1888 -0.0847  1.1254
   31PEO   H1D021524   6.483   4.158   2.765  1.0413  1.1364 -1.5054
   31PEO   H1D121525   6.363   4.268   2.696  1.8544  0.9298  3.3092
   31PEO   C1D221526   6.379   4.164   2.731  0.4155 -0.5887 -0.0574
   31PEO   C1D321527   6.364   4.063   2.617 -0.2261  0.0344  0.5855
   31PEO   H1D421528   6.262   4.050   2.577 -0.0096 -0.7753  0.2846
   31PEO   H1D521529   6.430   4.099   2.537 -0.0598  3.8049  2.2291
   31PEO   O1D621530   6.407   3.932   2.669 -0.0841 -0.2808  0.2876
   31PEO   H1D721531   6.467   3.740   2.595 -1.4147 -1.5448 -1.6424
   31PEO   H1D821532   6.516   3.890   2.494 -2.7877 -0.4118 -3.8134
   31PEO   C1D921533   6.443   3.842   2.562  0.3719 -0.6059 -0.2257
   31PEO   C1DA21534   6.324   3.812   2.460  0.1970  0.4751 -0.4395
   31PEO   H1DB21535   6.353   3.727   2.396 -0.7529 -0.2639  0.0904
   31PEO   H1DC21536   6.230   3.778   2.506  0.3558 -1.7475 -1.5954
   31PEO   O1DD21537   6.301   3.931   2.380 -0.3010 -0.1227 -0.1134
   31PEO   H1DE21538   6.090   3.942   2.404  0.3496  0.2884 -0.0296
   31PEO   H1DF21539   6.161   3.843   2.271  1.2666 -0.8378  1.3770
   31PEO   C1E021540   6.170   3.936   2.329  0.4059  0.1062  0.0442
   31PEO   C1E121541   6.147   4.063   2.235 -0.8208  0.7765  0.1430
   31PEO   H1E221542   6.222   4.061   2.155 -1.5401  0.0583 -0.5321
   31PEO   H1E321543   6.048   4.047   2.189 -1.2112  1.6285  0.6441
   31PEO   O1E421544   6.143   4.177   2.320 -0.2273 -0.0961 -0.4888
   31PEO   H1E521545   6.047   4.303   2.194 -0.5089  2.1854  1.2751
   31PEO   H1E621546   6.228   4.304   2.197  0.4581  2.1265  0.1928
   31PEO   C1E721547   6.136   4.301   2.258  0.3989 -0.8879  0.1021
   31PEO   C1E821548   6.122   4.425   2.359 -0.4380  0.2637  0.3999
   31PEO   H1E921549   6.104   4.515   2.298  0.6791 -0.9891 -1.8893
   31PEO   H1EA21550   6.037   4.404   2.426  0.2735 -2.6980  0.5093
   31PEO   O1EB21551   6.242   4.437   2.439 -0.1438 -0.4028  0.6273
   31PEO   H1EC21552   6.262   4.654   2.421  4.6574 -0.2925 -0.3082
   31PEO   H1ED21553   6.356   4.571   2.539  0.0084  0.5933  0.1967
   31PEO   C1EE21554   6.256   4.571   2.493  0.2489 -0.2249 -0.3266
   31PEO   C1EF21555   6.149   4.602   2.600 -0.1810 -0.1704 -0.2416
   31PEO   H1F021556   6.131   4.507   2.652  0.6239  0.5959  1.5724
   31PEO   H1F121557   6.189   4.662   2.684  0.3670 -1.7642  0.6744
   31PEO   O1F221558   6.038   4.673   2.531 -0.2148 -0.0811 -0.0970
   31PEO   H1F321559   5.994   4.856   2.628  2.1203  0.1899 -4.2751
   31PEO   H1F421560   5.977   4.716   2.732 -0.3722  2.0721  0.7732
   31PEO   C1F521561   5.962   4.750   2.629  0.7197  0.4653  0.0387
   31PEO   C1F621562   5.810   4.740   2.596 -0.4232  0.0123 -0.5666
   31PEO   H1F721563   5.779   4.635   2.583 -0.2894  0.0533 -1.2377
   31PEO   H1F821564   5.747   4.768   2.681 -0.1473 -1.0104 -0.0045
   31PEO   O1F921565   5.783   4.823   2.481  0.4622  0.3308  0.0618
   31PEO   H1FA21566   5.591   4.734   2.467 -1.0011  0.3922 -0.5078
   31PEO   H1FB21567   5.633   4.862   2.341  1.9802  0.5060  0.0530
   31PEO   C1FC21568   5.643   4.829   2.445  0.3935 -0.2272 -0.0081
   31PEO   C1FD21569   5.575   4.939   2.534  0.7302 -0.0090 -0.4609
   31PEO   H1FE21570   5.631   5.033   2.550 -0.4395  0.4326  1.4377
   31PEO   H1FF21571   5.489   4.975   2.476  3.1100  1.0064 -3.6806
   31PEO   O20021572   5.530   4.875   2.657  0.5368 -0.4018 -0.6693
   31PEO   H20121573   5.405   4.737   2.569  0.9428  3.5874 -3.0818
   31PEO   H20221574   5.321   4.876   2.641  1.3556  1.1536 -0.8572
   31PEO   C20321575   5.402   4.803   2.657  0.3379  0.1216 -0.2817
   31PEO   C20421576   5.361   4.750   2.794  0.2188 -0.4843 -0.2557
   31PEO   H20521577   5.293   4.664   2.792  0.0133 -0.4893  2.6600
   31PEO   H20621578   5.449   4.723   2.855 -0.1776  3.6264  2.5270
   31PEO   O20721579   5.306   4.868   2.854 -0.1323  0.5374  0.5580
   31PEO   H20821580   5.403   4.934   3.024  0.4757  1.5667 -3.2514
   31PEO   H20921581   5.318   4.776   3.060 -1.3031  0.8248  2.4479
   31PEO   C20A21582   5.315   4.871   3.004  1.0980 -0.5003 -0.1978
   31PEO   C20B21583   5.193   4.954   3.056  0.6470 -0.4428 -0.4838
   31PEO   H20C21584   5.200   4.982   3.162 -2.7349  0.6667 -0.4201
   31PEO   H20D21585   5.184   5.050   3.003 -2.4850  0.9587  2.2449
   31PEO   O20E21586   5.071   4.877   3.044 -0.0328  0.5402  0.2098
   31PEO   H20F21587   4.920   4.809   2.929  0.1112  0.1072  3.7018
   31PEO   H21021588   5.079   4.812   2.841 -1.2966  1.2861 -2.3924
   31PEO   C21121589   5.014   4.863   2.913 -0.0168 -0.4603  0.1359
   31PEO   C21221590   4.987   5.001   2.856  0.8396 -0.7837  0.0494
   31PEO   H21321591   5.084   5.038   2.819 -0.0107  1.4940 -0.0507
   31PEO   H21421592   4.922   4.994   2.767 -2.9758  0.6130  2.5103
   31PEO   O21521593   4.915   5.079   2.957  0.1018 -0.4115  0.1576
   31PEO   H21621594   4.799   5.234   2.995 -0.4041 -0.7802  0.4120
   31PEO   H21721595   4.805   5.176   2.814  0.2815  0.3372 -0.0731
   31PEO   C21821596   4.857   5.204   2.906 -0.1698  0.0587  0.2674
   31PEO   C21921597   4.964   5.299   2.878 -0.8708  0.5821  0.2772
   31PEO   H21A21598   5.053   5.263   2.824 -1.4158 -0.0730 -0.1834
   31PEO   H21B21599   4.928   5.375   2.807  3.5144  0.1733 -2.8485
   31PEO   O21C21600   5.009   5.364   3.004 -0.0589 -0.2977  0.2068
   31PEO   H21D21601   5.075   5.546   2.915 -0.3387 -0.3952  0.5738
   31PEO   H21E21602   5.203   5.425   2.926  2.6030  1.3891  1.8158
   31PEO   C21F21603   5.116   5.466   2.979  0.6752 -0.2638  0.1104
   31PEO   C22021604   5.165   5.531   3.106 -0.0815  0.0862 -0.1585
   31PEO   H22121605   5.198   5.451   3.174  1.6887  1.7023  0.9836
   31PEO   H22221606   5.252   5.594   3.079 -0.3964  1.9330  2.7377
   31PEO   O22321607   5.066   5.607   3.173 -0.4723  0.2710 -0.3645
   31PEO   H22421608   5.213   5.629   3.317 -0.4509  1.2952  2.5295
   31PEO   H22521609   5.055   5.667   3.374 -1.2693 -0.5734 -0.3344
   31PEO   C22621610   5.120   5.679   3.286 -0.5077 -0.0618  0.2815
   31PEO   C22721611   5.154   5.830   3.253  0.1971 -0.3417 -0.4267
   31PEO   H22821612   5.239   5.866   3.312  0.2419 -0.1541 -0.6067
   31PEO   H22921613   5.176   5.842   3.146 -1.4222  0.3502 -0.7094
   31PEO   O22A21614   5.038   5.912   3.287 -0.0840  0.0719  0.3848
   31PEO   H22B21615   5.109   6.086   3.201  2.6071 -2.3281 -0.1437
   31PEO   H22C21616   5.147   6.060   3.374  0.6804  0.5583 -0.6363
   31PEO   C22D21617   5.071   6.045   3.296  0.5116 -0.7704 -0.2387
   31PEO   C22E21618   4.941   6.125   3.315  0.2115  0.0292 -0.6932
   31PEO   H22F21619   4.968   6.232   3.314 -0.2110  0.1439 -0.1227
   31PEO   H23021620   4.871   6.078   3.246 -2.9407 -0.1453  2.3511
   31PEO   O23121621   4.901   6.092   3.451 -0.2887  0.2627 -0.0673
   31PEO   H23221622   4.707   6.101   3.401  3.5131  2.6462 -2.8899
   31PEO   H23321623   4.769   6.236   3.507  2.8219 -0.3836  0.4058
   31PEO   C23421624   4.766   6.127   3.490  0.6754 -0.3251  0.1341
   31PEO   C23521625   4.718   6.044   3.615  0.9435  0.1837 -0.6041
   31PEO   H23621626   4.609   6.056   3.614  0.9984  0.8673 -0.0133
   31PEO   H23721627   4.734   5.938   3.594 -2.2900  0.1451 -3.7371
   31PEO   O23821628   4.783   6.091   3.738  0.2514  0.0928  0.3320
   31PEO   H23921629   4.647   6.255   3.725  0.8803 -2.2429 -3.8854
   31PEO   H23A21630   4.817   6.288   3.710 -1.2291 -0.3479  0.0497
   31PEO   C23B21631   4.745   6.229   3.768 -0.4591 -0.6049  0.7551
   31PEO   C23C21632   4.766   6.254   3.914 -0.7800 -0.0329 -0.0628
   31PEO   H23D21633   4.871   6.227   3.931  0.2357  2.3449 -1.9555
   31PEO   H23E21634   4.756   6.363   3.924 -0.8738 -0.0693  0.2492
   31PEO   O23F21635   4.670   6.179   3.992  0.0954  0.9084 -0.7470
   31PEO   H24021636   4.546   6.220   4.159  0.3464 -3.5534 -0.8041
   31PEO   H24121637   4.679   6.337   4.140 -0.0837  0.3113 -2.7660
   31PEO   C24221638   4.651   6.232   4.127  0.3386 -0.2103 -0.0211
   31PEO   C24321639   4.719   6.136   4.226  0.5576  0.0140 -0.0109
   31PEO   H24421640   4.666   6.133   4.322  0.0456  0.3301 -0.2811
   31PEO   H24521641   4.721   6.033   4.187  2.1438  0.0085  0.0027
   31PEO   O24621642   4.853   6.180   4.250 -0.1248  0.3890  0.0113
   31PEO   H24721643   4.965   6.005   4.188  1.6495 -3.2803  2.0088
   31PEO   H24821644   4.903   5.996   4.350 -1.3652  1.9203  0.5787
   31PEO   C24921645   4.946   6.067   4.277  0.3629  0.0048 -0.3718
   31PEO   C24A21646   5.089   6.111   4.339  0.3140  0.1453  0.2846
   31PEO   H24B21647   5.133   6.204   4.301  1.5033  0.3909  2.1453
   31PEO   H24C21648   5.079   6.109   4.449 -0.9701 -2.5458  0.2213
   31PEO   O24D21649   5.189   6.007   4.304  0.2096  1.0246 -0.4091
   31PEO   H24E21650   5.333   6.015   4.466  2.0447 -0.0231  0.1393
   31PEO   H24F21651   5.370   6.114   4.328 -1.4709 -0.0710 -1.4452
   31PEO   C25021652   5.328   6.016   4.356  0.0153 -0.2795  0.1832
   31PEO   C25121653   5.409   5.901   4.303  0.1139 -0.4818 -0.2296
   31PEO   H25221654   5.423   5.912   4.195  0.7594  1.0095 -0.0187
   31PEO   H25321655   5.510   5.914   4.345 -0.2644  2.7100 -0.0483
   31PEO   O25421656   5.354   5.774   4.355  0.1924 -0.4099  0.1333
   31PEO   H25521657   5.409   5.597   4.434 -0.1063  0.2267  1.1778
   31PEO   H25621658   5.548   5.706   4.413  0.5536  0.5187 -1.3625
   31PEO   C25721659   5.454   5.671   4.366  0.1990 -0.7862  0.2414
   31PEO   C25821660   5.484   5.619   4.222  0.6239  0.5516  0.3194
   31PEO   H25921661   5.530   5.524   4.251  1.2132  0.7047 -0.0993
   31PEO   H25A21662   5.396   5.600   4.159  0.6576  0.3983  0.3174
   31PEO   O25B21663   5.583   5.697   4.156  0.5657  0.3342 -0.2895
   31PEO   H25C21664   5.522   5.659   3.958 -1.0113 -1.3381  0.8005
   31PEO   H25D21665   5.654   5.559   4.037  2.3976  0.7687 -0.4062
   31PEO   C25E21666   5.611   5.660   4.022 -0.5655 -0.2979  0.2024
   31PEO   C25F21667   5.720   5.752   3.966 -0.3945 -0.2613  0.2306
   31PEO   H26021668   5.741   5.722   3.862 -2.8285  0.0366 -0.3894
   31PEO   H26121669   5.685   5.856   3.961 -0.8419 -0.4278 -0.1362
   31PEO   O26221670   5.842   5.726   4.043 -0.2987  0.2548 -0.1064
   31PEO   H26321671   5.960   5.854   3.909 -1.2186 -1.5063 -2.4505
   31PEO   H26421672   5.976   5.684   3.888  0.3282  0.8389 -1.3985
   31PEO   C26521673   5.963   5.760   3.967  0.7739 -0.2121 -0.2762
   31PEO   C26621674   6.093   5.749   4.049  0.4624 -0.8234 -0.2607
   31PEO   H26721675   6.093   5.661   4.116  4.1766  0.5002  1.7447
   31PEO   H26821676   6.177   5.737   3.980 -0.3214 -1.9516 -1.0492
   31PEO   O26921677   6.114   5.862   4.134  0.7495 -0.1966  0.2745
   31PEO   H26A21678   6.321   5.859   4.189  0.9775 -1.4144  1.3330
   31PEO   H26B21679   6.202   5.782   4.302  0.4920  0.1408  0.1997
   31PEO   C26C21680   6.219   5.863   4.230  0.3936 -0.1549 -0.1587
   31PEO   C26D21681   6.210   5.986   4.320  0.2089  0.1945 -0.2705
   31PEO   H26E21682   6.104   6.013   4.333 -0.2478 -1.4878 -0.2671
   31PEO   H26F21683   6.252   5.953   4.416  0.1681 -0.9708 -0.6449
   31PEO   O27021684   6.289   6.089   4.270 -0.2669 -0.3305  0.7004
   31PEO   H27121685   6.331   6.181   4.460 -1.0183  0.2687  0.1238
   31PEO   H27221686   6.189   6.247   4.374 -0.5181 -0.1585  0.3120
   31PEO   C27321687   6.291   6.207   4.361 -0.4910  0.0539 -0.1504
   31PEO   C27421688   6.387   6.316   4.302 -0.2925 -0.2331  0.1787
   31PEO   H27521689   6.352   6.370   4.213 -2.5168  2.3967  2.4588
   31PEO   H27621690   6.401   6.387   4.385  1.0862  1.6948 -1.6008
   31PEO   O27721691   6.513   6.269   4.273 -0.2165 -0.3792 -0.4128
   31PEO   H27821692   6.548   6.194   4.460  0.4887 -1.7283 -0.4304
   31PEO   H27921693   6.664   6.313   4.412 -0.6442 -0.3441 -0.1955
   31PEO   C27A21694   6.601   6.232   4.371 -0.6912 -0.1531 -0.5020
   31PEO   C27B21695   6.682   6.115   4.325 -0.0140  0.3421  0.3093
   31PEO   H27C21696   6.719   6.057   4.411  0.9205  1.8562  0.9761
   31PEO   H27D21697   6.626   6.056   4.252  1.2639 -1.3793  0.6488
   31PEO   O27E21698   6.796   6.172   4.251  0.2637  0.3664  0.2802
   31PEO   H27F21699   6.863   6.026   4.115 -0.4151  0.7790 -0.5318
   31PEO   H28021700   6.939   6.011   4.272  2.2171  1.6403  0.3002
   31PEO   C28121701   6.899   6.085   4.201 -0.1973  0.0533 -0.1189
   31PEO   C28221702   7.012   6.170   4.154 -0.0383 -0.1732 -0.0399
   31PEO   H28321703   7.091   6.106   4.111  1.1302  1.3099 -0.1665
   31PEO   H28421704   6.982   6.242   4.076 -1.0780  2.7588  2.8238
   31PEO   O28521705   7.077   6.234   4.263  0.6336  0.1801  0.4738
   31PEO   H28621706   7.275   6.212   4.201  0.9986  1.1484 -1.0010
   31PEO   H28721707   7.239   6.341   4.306 -4.3243  3.4050 -0.3593
   31PEO   C28821708   7.196   6.286   4.221 -0.1156 -0.1268 -0.5396
   31PEO   C28921709   7.197   6.394   4.113 -0.7106  0.3937 -0.1506
   31PEO   H28A21710   7.304   6.410   4.091 -0.8221  2.9731  0.8075
   31PEO   H28B21711   7.148   6.350   4.025 -1.7273 -2.4298  1.6818
   31PEO   O28C21712   7.149   6.519   4.166  0.1931 -0.2397  0.3467
   31PEO   H28D21713   6.994   6.602   4.270  0.2137 -0.5537  0.6672
   31PEO   H28E21714   6.955   6.437   4.236 -1.4147  1.2712  0.2724
   31PEO   C28F21715   7.010   6.523   4.195 -0.3101  0.2955 -0.3719
   31PEO   C29021716   6.930   6.559   4.063 -0.5849  0.2168 -0.0236
   31PEO   H29121717   6.830   6.587   4.099  0.2068  0.4389  2.1667
   31PEO   H29221718   6.968   6.650   4.014 -1.4482  0.2967 -0.5607
   31PEO   O29321719   6.934   6.445   3.975  0.4170 -0.6084 -0.1385
   31PEO   H29421720   6.725   6.447   3.945  0.4114 -0.2965  0.1620
   31PEO   H29521721   6.779   6.338   4.075  1.9316 -1.0921 -0.6962
   31PEO   C29621722   6.803   6.375   3.974  0.4433 -0.7274 -0.9388
   31PEO   C29721723   6.779   6.259   3.879  0.5797  0.2359  0.2478
   31PEO   H29821724   6.702   6.195   3.926  0.9121  0.6925  1.4344
   31PEO   H29921725   6.737   6.286   3.781 -0.4781  1.2762  0.9662
   31PEO   O29A21726   6.895   6.176   3.850 -0.4809 -0.1133  0.1745
   31PEO   H29B21727   7.025   6.319   3.775 -1.6107  0.6050  0.4093
   31PEO   H29C21728   6.945   6.233   3.648 -0.1361  1.0325 -0.3891
   31PEO   C29D21729   6.989   6.219   3.748 -0.2420  0.3100 -0.4409
   31PEO   C29E21730   7.104   6.115   3.744 -0.2581 -0.1756  0.3654
   31PEO   H29F21731   7.065   6.017   3.714 -1.9272 -0.1902  2.3578
   31PEO   H2A021732   7.168   6.137   3.658 -1.1977  3.0506  0.3612
   31PEO   O2A121733   7.187   6.112   3.854 -0.9740 -0.1507 -0.5323
   31PEO   H2A221734   7.333   5.995   3.746  3.4445  1.0898  1.0246
   31PEO   H2A321735   7.240   5.919   3.887 -0.6426 -0.0772 -0.9952
   31PEO   C2A421736   7.292   6.008   3.847 -0.4311  0.1413 -0.2461
   31PEO   C2A521737   7.418   6.038   3.940 -0.5162 -0.3380  0.5250
   31PEO   H2A621738   7.378   6.026   4.042 -0.8916 -2.2979  0.1868
   31PEO   H2A721739   7.502   5.970   3.920  1.2281  1.7950  0.1333
   31PEO   O2A821740   7.465   6.169   3.911  0.0758 -0.1527 -0.2356
   31PEO   H2A921741   7.511   6.298   4.081  1.3098 -0.5949  0.9833
   31PEO   H2AA21742   7.605   6.312   3.931  2.0560 -0.2880  0.5662
   31PEO   C2AB21743   7.555   6.241   3.998  0.7035  0.1747  0.1045
   31PEO   C2AC21744   7.662   6.150   4.061 -0.0037  0.0198 -0.7833
   31PEO   H2AD21745   7.689   6.078   3.982 -4.1114 -1.5309 -1.0120
   31PEO   H2AE21746   7.747   6.205   4.103  0.1882 -1.0365  0.2669
   31PEO   O2AF21747   7.602   6.074   4.164 -0.1713  0.7024 -0.6865
   31PEO   H2B021748   7.522   6.071   4.361  0.4722  0.0730  1.8354
   31PEO   H2B121749   7.576   6.233   4.295 -2.2627 -0.0786 -0.2978
   31PEO   C2B221750   7.599   6.127   4.307 -0.5551  0.3655  0.6285
   31PEO   C2B321751   7.736   6.119   4.378 -0.1989 -0.9938  0.1477
   31PEO   H2B421752   7.726   6.153   4.482 -1.8968 -2.9464  0.6943
   31PEO   H2B521753   7.763   6.013   4.391 -0.1665 -1.3523 -2.2933
   31PEO   O2B621754   7.837   6.196   4.314  0.3713 -0.8475  0.0396
   31PEO   H2B721755   7.852   6.347   4.453  0.0791  0.1846 -0.6972
   31PEO   H2B821756   7.737   6.374   4.306 -0.9919 -0.6255 -0.2479
   31PEO   C2B921757   7.831   6.333   4.346  0.0425  1.0801 -0.8092
   31PEO   C2BA21758   7.955   6.390   4.274  0.4864  0.0535 -0.5956
   31PEO   H2BB21759   7.950   6.359   4.168 -0.9357  0.4191 -0.6649
   31PEO   H2BC21760   7.944   6.500   4.271  0.5236  0.0604 -0.4797
   31PEO   O2BD21761   8.079   6.349   4.322  0.1875 -0.2166 -0.3116
   31PEO   H2BE21762   8.085   6.254   4.343  1.5536 -0.6496 -2.3579
   32PEO   H00121763   0.552   5.267   1.953 -1.0945 -1.8341 -2.7646
   32PEO   H00221764   0.689   5.172   2.007 -0.4230  1.0391  2.5352
   32PEO   H00321765   0.539   5.085   1.950 -0.6169 -0.1730  0.3024
   32PEO   C00421766   0.579   5.173   2.003 -0.4269 -0.1822  0.1748
   32PEO   C00521767   0.528   5.176   2.148 -0.5731  0.0895 -0.4369
   32PEO   H00621768   0.434   5.120   2.157  0.4285 -1.3309  2.2699
   32PEO   H00721769   0.599   5.116   2.207 -1.0113 -0.7276 -0.7256
   32PEO   O00821770   0.517   5.317   2.191  0.1395 -0.2403 -0.0487
   32PEO   H00921771   0.625   5.398   2.350 -1.1593  0.7185  2.7745
   32PEO   H00A21772   0.549   5.250   2.395  0.0811 -1.3418 -0.8731
   32PEO   C00B21773   0.536   5.337   2.330  0.3805 -0.8083 -0.2344
   32PEO   C00C21774   0.416   5.423   2.383 -0.0192  0.2631  0.3421
   32PEO   H00D21775   0.426   5.468   2.483 -1.4289  1.8740 -0.1944
   32PEO   H00E21776   0.401   5.503   2.309 -1.5123 -1.1748 -0.9660
   32PEO   O00F21777   0.305   5.330   2.383  0.0164  0.4375  0.9011
   32PEO   H01021778   0.093   5.306   2.355  1.3915 -1.5816  0.9547
   32PEO   H01121779   0.154   5.462   2.313  0.0821  0.0432 -0.2198
   32PEO   C01221780   0.168   5.380   2.385 -0.0863  0.3277  0.1401
   32PEO   C01321781   0.131   5.425   2.523  0.0512  0.3665 -0.7724
   32PEO   H01421782   0.216   5.476   2.571 -2.0820  0.6805  3.0328
   32PEO   H01521783   0.046   5.494   2.528  0.5084  0.9297 -0.7311
   32PEO   O01621784   0.089   5.300   2.595 -0.2005 -0.3965 -0.6452
   32PEO   H01721785  -0.012   5.390   2.750  0.5223  0.6745 -1.6927
   32PEO   H01821786   0.158   5.370   2.787  0.2931  1.3409 -0.0021
   32PEO   C01921787   0.073   5.322   2.736  0.7690  0.6315 -0.1426
   32PEO   C01A21788   0.041   5.179   2.792 -1.5385 -0.0656 -0.0466
   32PEO   H01B21789  -0.004   5.190   2.891 -1.9414  2.8983 -0.4629
   32PEO   H01C21790  -0.031   5.132   2.723 -2.5369 -0.0983  0.9944
   32PEO   O01D21791   0.172   5.111   2.797  0.3292 -0.5675  1.0647
   32PEO   H01E21792   0.252   4.911   2.814 -1.0947 -1.1328 -2.4339
   32PEO   H01F21793   0.091   4.911   2.782  1.9824 -3.3895  0.4155
   32PEO   C02021794   0.164   4.973   2.836  0.0087 -0.2173 -0.2752
   32PEO   C02121795   0.139   4.981   2.990 -0.4340 -0.2528 -1.0257
   32PEO   H02221796   0.218   4.923   3.039  0.7845  2.8624  0.9994
   32PEO   H02321797   0.168   5.084   3.015  2.2072 -1.0656 -0.4500
   32PEO   O02421798   0.009   4.960   3.038  0.2935  0.8359 -0.3988
   32PEO   H02521799   0.008   5.113   3.176 -0.8524  0.2285  0.6441
   32PEO   H02621800   0.031   4.938   3.244  0.9116  0.0278 -0.7965
   32PEO   C02721801  -0.017   5.006   3.172  0.1822  0.0048 -0.3416
   32PEO   C02821802  -0.169   5.005   3.174 -0.2285 -0.3083  0.2190
   32PEO   H02921803  -0.201   5.100   3.220 -3.4295 -0.2144 -1.8835
   32PEO   H02A21804  -0.211   5.014   3.073  0.4743  1.2319  0.0375
   32PEO   O02B21805  -0.216   4.887   3.241  0.6353 -0.3954  0.2168
   32PEO   H02C21806  -0.416   4.912   3.187 -1.3929 -0.3096  1.3135
   32PEO   H02D21807  -0.375   4.944   3.349 -0.2784  0.3419 -1.0317
   32PEO   C02E21808  -0.354   4.873   3.268  0.0825 -0.7769  0.0156
   32PEO   C02F21809  -0.386   4.732   3.309  0.3259  0.1705  0.0696
   32PEO   H03021810  -0.494   4.711   3.314  0.2819 -0.0919 -1.4463
   32PEO   H03121811  -0.351   4.666   3.227  0.5439  2.7448 -2.0311
   32PEO   O03221812  -0.317   4.675   3.418 -0.7012 -0.3450 -0.8738
   32PEO   H03321813  -0.439   4.771   3.544  0.0853 -2.3704 -0.3825
   32PEO   H03421814  -0.265   4.831   3.548  1.1186 -0.2995 -0.7401
   32PEO   C03521815  -0.332   4.744   3.544  0.7279 -0.0381  0.0560
   32PEO   C03621816  -0.297   4.646   3.655  0.7972 -0.3781 -0.2484
   32PEO   H03721817  -0.197   4.602   3.649  0.4417 -1.0733 -1.3475
   32PEO   H03821818  -0.321   4.702   3.747  0.5507 -1.4431  0.3519
   32PEO   O03921819  -0.393   4.534   3.647  0.2722  0.4049  0.2295
   32PEO   H03A21820  -0.475   4.377   3.750  2.2241 -1.4284 -1.2948
   32PEO   H03B21821  -0.406   4.509   3.854 -3.7364  1.7915 -1.8729
   32PEO   C03C21822  -0.392   4.448   3.763  0.4691  0.6027 -0.6732
   32PEO   C03D21823  -0.275   4.348   3.763 -0.1370  0.1212  0.0958
   32PEO   H03E21824  -0.182   4.406   3.748  0.1203 -0.4858 -0.7710
   32PEO   H03F21825  -0.274   4.292   3.858  1.5183 -0.1815 -0.0689
   32PEO   O04021826  -0.287   4.254   3.650  0.6203 -0.5731 -0.2567
   32PEO   H04121827  -0.105   4.176   3.689 -1.6748  1.4041  1.0589
   32PEO   H04221828  -0.119   4.274   3.537 -1.9117 -0.4386 -1.1099
   32PEO   C04321829  -0.165   4.196   3.599 -0.6829 -0.3476 -0.0433
   32PEO   C04421830  -0.184   4.071   3.505  0.9276  0.5466  0.9191
   32PEO   H04521831  -0.213   4.099   3.403  0.7939 -1.2864  0.4096
   32PEO   H04621832  -0.084   4.025   3.494  0.4694 -0.2585 -0.1064
   32PEO   O04721833  -0.250   3.961   3.570  0.4127 -0.3956  0.0786
   32PEO   H04821834  -0.398   3.953   3.429  2.5056 -0.0369 -0.2913
   32PEO   H04921835  -0.447   4.035   3.571  1.0043  0.4265  1.4006
   32PEO   C04A21836  -0.390   3.946   3.538 -0.6037 -0.1491 -0.0019
   32PEO   C04B21837  -0.439   3.803   3.578  0.1398 -0.7273  0.4488
   32PEO   H04C21838  -0.436   3.795   3.688 -0.0860  1.8088  0.7114
   32PEO   H04D21839  -0.538   3.787   3.534  0.5879 -1.3794 -0.3632
   32PEO   O04E21840  -0.357   3.710   3.507  0.1293  0.3915 -0.9776
   32PEO   H04F21841  -0.292   3.626   3.679 -2.7334 -1.1879 -2.6010
   32PEO   H05021842  -0.164   3.733   3.598  0.0557  0.9621 -1.5083
   32PEO   C05121843  -0.245   3.660   3.585  0.5390  0.2556 -0.6235
   32PEO   C05221844  -0.172   3.544   3.511 -0.2400 -0.4924  0.1408
   32PEO   H05321845  -0.150   3.583   3.411  1.7837  1.9760  1.4229
   32PEO   H05421846  -0.077   3.512   3.556  0.0797 -1.7449 -1.3461
   32PEO   O05521847  -0.278   3.449   3.509 -0.5036 -0.6418 -0.6322
   32PEO   H05621848  -0.135   3.345   3.407  0.2341  0.9302  0.8821
   32PEO   H05721849  -0.295   3.282   3.379 -0.1375 -0.5291  0.3835
   32PEO   C05821850  -0.231   3.323   3.458  0.2848 -0.9362  0.2596
   32PEO   C05921851  -0.201   3.222   3.576  0.1260  0.1247  0.3892
   32PEO   H05A21852  -0.269   3.230   3.662  0.3460  1.5527  0.4633
   32PEO   H05B21853  -0.210   3.121   3.535 -0.3358  0.9979 -1.7943
   32PEO   O05C21854  -0.074   3.257   3.632  0.3057 -0.6456 -0.2866
   32PEO   H05D21855  -0.024   3.057   3.704  1.5837 -1.1407 -0.6310
   32PEO   H05E21856  -0.082   3.171   3.821 -0.2089  2.5511 -0.5535
   32PEO   C05F21857  -0.020   3.163   3.730  0.0144 -1.1484 -0.2507
   32PEO   C06021858   0.113   3.204   3.790 -0.3211 -0.1615 -0.2977
   32PEO   H06121859   0.109   3.314   3.799 -1.7206 -0.2223  0.2086
   32PEO   H06221860   0.119   3.153   3.887  1.6275  0.3524 -0.1193
   32PEO   O06321861   0.220   3.152   3.712 -0.7023 -1.1463  0.5284
   32PEO   H06421862   0.424   3.142   3.694 -0.2153 -1.1277  1.3184
   32PEO   H06521863   0.366   3.199   3.849  0.5759  0.1932 -0.7743
   32PEO   C06621864   0.349   3.208   3.741 -0.4262  0.1153 -0.6354
   32PEO   C06721865   0.359   3.356   3.694  0.1306  0.2059  0.1552
   32PEO   H06821866   0.288   3.427   3.739 -1.1503 -0.2755 -1.0071
   32PEO   H06921867   0.458   3.399   3.709  0.1430 -0.5093  2.4481
   32PEO   O06A21868   0.350   3.351   3.552 -0.3632  0.0175 -0.5130
   32PEO   H06B21869   0.207   3.496   3.525  0.6983  0.9180 -0.4892
   32PEO   H06C21870   0.154   3.322   3.502  0.9954 -0.8589  1.8453
   32PEO   C06D21871   0.235   3.395   3.492 -0.3118  0.4665 -0.0126
   32PEO   C06E21872   0.253   3.402   3.343  0.6103  0.2185  0.3906
   32PEO   H06F21873   0.318   3.320   3.310  0.5335  0.3479 -0.0783
   32PEO   H07021874   0.152   3.385   3.303  1.1829 -1.7220 -0.3178
   32PEO   O07121875   0.295   3.528   3.310  0.2586 -0.2765  0.1951
   32PEO   H07221876   0.184   3.553   3.136 -0.9044  2.5123  0.8459
   32PEO   H07321877   0.348   3.478   3.118  3.9328  1.4212  2.2041
   32PEO   C07421878   0.289   3.556   3.169 -0.3424  0.3798 -0.5574
   32PEO   C07521879   0.346   3.700   3.157  0.4479 -0.7167 -0.2685
   32PEO   H07621880   0.446   3.692   3.203  0.3774 -1.4629 -0.2393
   32PEO   H07721881   0.357   3.736   3.053 -0.0239 -0.5693 -0.2683
   32PEO   O07821882   0.252   3.783   3.226 -0.6882  0.2609  0.0352
   32PEO   H07921883   0.352   3.956   3.168  0.0252 -0.0222  0.5176
   32PEO   H07A21884   0.398   3.895   3.320  0.7414 -2.4714 -1.3433
   32PEO   C07B21885   0.309   3.907   3.256 -0.2956  0.0683  0.4129
   32PEO   C07C21886   0.206   3.997   3.320  0.6177  0.1396 -0.0450
   32PEO   H07D21887   0.152   3.954   3.406 -0.1641 -0.7174 -0.9435
   32PEO   H07E21888   0.263   4.079   3.367  1.8352 -0.0405 -1.1330
   32PEO   O07F21889   0.124   4.053   3.215  0.7860 -0.1972  0.3256
   32PEO   H08021890   0.140   4.245   3.256  1.4885 -2.0400 -0.3989
   32PEO   H08121891   0.004   4.181   3.339  0.4273 -1.5397  1.5564
   32PEO   C08221892   0.058   4.174   3.244 -0.6161  0.0313  0.8108
   32PEO   C08321893  -0.021   4.211   3.112  0.1213 -0.4475 -1.0074
   32PEO   H08421894  -0.015   4.321   3.110  0.1100 -0.3884  0.7067
   32PEO   H08521895   0.029   4.161   3.028  0.9378  1.5432 -1.7658
   32PEO   O08621896  -0.158   4.166   3.138  0.2986  0.3119 -0.1198
   32PEO   H08721897  -0.215   4.321   3.015 -0.7676  0.2481 -0.0731
   32PEO   H08821898  -0.221   4.353   3.181  0.4180 -0.1821  0.2270
   32PEO   C08921899  -0.243   4.273   3.109 -0.6686  0.3139 -0.0100
   32PEO   C08A21900  -0.386   4.216   3.129 -0.1530 -0.2208 -0.0891
   32PEO   H08B21901  -0.465   4.268   3.071 -0.8018 -1.2594 -0.1677
   32PEO   H08C21902  -0.375   4.116   3.085  0.2592 -1.1296  1.9717
   32PEO   O08D21903  -0.411   4.212   3.272 -0.1527 -0.8424  0.2297
   32PEO   H08E21904  -0.549   4.369   3.249 -0.5819  2.3407  0.7442
   32PEO   H08F21905  -0.399   4.403   3.344  0.1532 -0.5114 -0.9697
   32PEO   C09021906  -0.474   4.328   3.318 -0.7527  0.1361 -0.3028
   32PEO   C09121907  -0.548   4.303   3.450 -0.1776  0.9587 -0.0546
   32PEO   H09221908  -0.585   4.199   3.445 -4.8973  2.3720  0.9184
   32PEO   H09321909  -0.503   4.320   3.549  0.5400 -2.9322  0.4549
   32PEO   O09421910  -0.675   4.370   3.461  0.5402 -0.2042  0.4683
   32PEO   H09521911  -0.591   4.560   3.457 -0.2972 -0.5997 -0.1638
   32PEO   H09621912  -0.652   4.496   3.612 -0.8417 -1.8790  0.4589
   32PEO   C09721913  -0.673   4.504   3.504 -0.1194 -0.3954  0.4041
   32PEO   C09821914  -0.817   4.564   3.476 -0.6183  0.8696  0.1275
   32PEO   H09921915  -0.812   4.673   3.462  2.0410  0.8011  0.0013
   32PEO   H09A21916  -0.858   4.521   3.383  2.9752 -0.2161 -1.1178
   32PEO   O09B21917  -0.910   4.545   3.577  0.2441  0.3794  0.1136
   32PEO   H09C21918  -0.869   4.347   3.620 -0.3489 -1.5644 -0.1721
   32PEO   H09D21919  -1.014   4.374   3.521  1.2949 -0.6097 -0.9571
   32PEO   C09E21920  -0.956   4.413   3.606  0.5423 -0.4374 -0.5119
   32PEO   C09F21921  -1.039   4.415   3.736  1.1187 -0.1357  0.0455
   32PEO   H0A021922  -1.057   4.320   3.789 -3.5282  0.8232  0.5980
   32PEO   H0A121923  -0.992   4.490   3.802  3.6431 -0.2550 -1.5081
   32PEO   O0A221924  -1.172   4.457   3.700  0.1438 -1.0927  0.0264
   32PEO   H0A321925  -1.152   4.612   3.568 -0.5584 -3.9222 -0.9290
   32PEO   H0A421926  -1.141   4.647   3.754 -0.2258  0.1990  0.3417
   32PEO   C0A521927  -1.191   4.596   3.670  0.6825 -0.5168  0.2199
   32PEO   C0A621928  -1.336   4.646   3.678  0.1353 -0.6545  0.3807
   32PEO   H0A721929  -1.382   4.607   3.770  0.1794  0.5399  0.9250
   32PEO   H0A821930  -1.340   4.755   3.692 -0.9059 -0.5509 -0.5695
   32PEO   O0A921931  -1.412   4.617   3.564 -0.3634 -0.2942 -0.4275
   32PEO   H0AA21932  -1.321   4.730   3.407  0.0592  3.5843  0.0547
   32PEO   H0AB21933  -1.404   4.824   3.508 -0.4931 -0.8437  0.1270
   32PEO   C0AC21934  -1.413   4.722   3.466  0.0343 -0.7545 -0.2120
   32PEO   C0AD21935  -1.537   4.704   3.372 -0.3129  0.1342  0.8643
   32PEO   H0AE21936  -1.524   4.778   3.292  0.7414 -1.6223 -0.6628
   32PEO   H0AF21937  -1.548   4.606   3.323 -0.5398  0.5801  0.0087
   32PEO   O0B021938  -1.657   4.721   3.446  0.1403  0.3156 -0.4052
   32PEO   H0B121939  -1.803   4.822   3.512  2.7697 -3.4632  1.3098
   32PEO   H0B221940  -1.767   4.868   3.339 -1.8603 -1.7977 -0.4231
   32PEO   C0B321941  -1.724   4.844   3.438  0.1710  0.4905 -0.6364
   32PEO   C0B421942  -1.642   4.954   3.518 -0.0312  0.5937  0.6891
   32PEO   H0B521943  -1.707   5.038   3.546  0.8276  1.2983  0.6320
   32PEO   H0B621944  -1.610   4.920   3.618 -1.0015 -0.4559  0.6674
   32PEO   O0B721945  -1.535   5.003   3.439 -0.2884 -0.3537 -0.3282
   32PEO   H0B821946  -1.552   5.209   3.501 -0.8359  1.0590 -1.5434
   32PEO   H0B921947  -1.612   5.166   3.339 -0.5253 -0.5267  0.5316
   32PEO   C0BA21948  -1.532   5.148   3.412  0.1488 -0.6385 -0.2244
   32PEO   C0BB21949  -1.395   5.196   3.367  0.5752 -0.7988 -0.1755
   32PEO   H0BC21950  -1.402   5.304   3.382 -0.9969 -0.9145  0.1245
   32PEO   H0BD21951  -1.314   5.153   3.427  2.1225  0.6199 -1.1636
   32PEO   O0BE21952  -1.384   5.160   3.225  1.2229  0.5425  0.5299
   32PEO   H0BF21953  -1.246   5.306   3.186  1.1267 -1.5493  0.0510
   32PEO   H0C021954  -1.419   5.355   3.156 -0.5906  0.3248 -1.6484
   32PEO   C0C121955  -1.345   5.273   3.149  0.2049  0.8355  0.2254
   32PEO   C0C221956  -1.326   5.236   3.000  0.2549  0.4765 -0.4549
   32PEO   H0C321957  -1.234   5.288   2.970  0.9548 -0.5085 -0.0816
   32PEO   H0C421958  -1.305   5.129   2.990  1.3004  0.6053  0.2381
   32PEO   O0C521959  -1.441   5.265   2.921  0.5531 -0.3381 -0.3492
   32PEO   H0C621960  -1.534   5.238   2.732  0.1681 -1.0146 -0.8936
   32PEO   H0C721961  -1.417   5.104   2.791 -1.1093 -0.4578  1.3477
   32PEO   C0C821962  -1.441   5.212   2.784 -0.4389 -0.3457  0.5807
   32PEO   C0C921963  -1.325   5.257   2.693 -0.0032 -0.4029  0.8390
   32PEO   H0CA21964  -1.224   5.240   2.732  0.0731 -0.2885  0.6919
   32PEO   H0CB21965  -1.343   5.194   2.604 -1.3553 -0.0140  0.8214
   32PEO   O0CC21966  -1.348   5.390   2.659  0.0791  0.3651 -0.0756
   32PEO   H0CD21967  -1.167   5.461   2.744  0.4435  0.7753  1.4260
   32PEO   H0CE21968  -1.316   5.482   2.841 -0.1928  0.6654 -0.1304
   32PEO   C0CF21969  -1.274   5.484   2.740  0.2880 -0.0852  0.0463
   32PEO   C0D021970  -1.302   5.631   2.684 -0.0604 -0.4392 -0.2269
   32PEO   H0D121971  -1.411   5.647   2.683 -0.0936 -0.3554  1.2516
   32PEO   H0D221972  -1.277   5.708   2.759 -3.9843 -0.3615  1.2467
   32PEO   O0D321973  -1.234   5.645   2.560  0.0570 -0.4922 -0.2370
   32PEO   H0D421974  -1.210   5.845   2.595  1.7323 -0.4873 -0.3206
   32PEO   H0D521975  -1.352   5.818   2.491  0.3218  2.6877 -0.2108
   32PEO   C0D621976  -1.249   5.784   2.512 -0.3819  0.4609 -0.0939
   32PEO   C0D721977  -1.149   5.805   2.391 -0.1216  0.0655 -0.6080
   32PEO   H0D821978  -1.142   5.915   2.393  0.5496  0.2379  4.9754
   32PEO   H0D921979  -1.060   5.749   2.425 -0.8357  0.3804  2.0195
   32PEO   O0DA21980  -1.203   5.746   2.273 -0.4884  0.1811  0.6320
   32PEO   H0DB21981  -1.014   5.678   2.198 -0.1918 -0.0509 -1.1653
   32PEO   H0DC21982  -1.071   5.828   2.131  1.6859 -0.5429 -0.6828
   32PEO   C0DD21983  -1.106   5.730   2.166 -0.3358  0.3058 -0.2060
   32PEO   C0DE21984  -1.165   5.659   2.053 -0.4285  0.0669 -0.1944
   32PEO   H0DF21985  -1.090   5.642   1.974  1.4377  1.8129  1.0923
   32PEO   H0E021986  -1.208   5.567   2.096  0.3793  0.8461  2.5185
   32PEO   O0E121987  -1.261   5.741   1.993 -0.0475 -0.0128 -0.7895
   32PEO   H0E221988  -1.316   5.574   1.882 -1.5008 -2.5410  2.6029
   32PEO   H0E321989  -1.404   5.733   1.851 -0.1592  1.5839  1.3321
   32PEO   C0E421990  -1.363   5.663   1.926 -0.7672 -0.6000 -0.2591
   32PEO   C0E521991  -1.475   5.618   2.023  0.1664  0.2477 -0.5248
   32PEO   H0E621992  -1.449   5.518   2.060 -0.2997  0.6633  0.9654
   32PEO   H0E721993  -1.497   5.693   2.101  0.4341  1.9874 -2.0385
   32PEO   O0E821994  -1.600   5.596   1.952 -0.0157 -0.3215  0.2090
   32PEO   H0E921995  -1.545   5.401   1.896  0.4822 -0.5373 -0.1412
   32PEO   H0EA21996  -1.553   5.521   1.766  0.8775  0.6510  0.4793
   32PEO   C0EB21997  -1.600   5.489   1.860  0.4346 -0.5693 -0.1454
   32PEO   C0EC21998  -1.745   5.455   1.808  0.3737  0.0463 -0.4780
   32PEO   H0ED21999  -1.784   5.544   1.756 -1.4846 -0.6430 -0.3340
   32PEO   H0EE22000  -1.731   5.371   1.739 -0.9106  0.7873 -1.6912
   32PEO   O0EF22001  -1.829   5.409   1.920 -0.5066 -0.1015  0.1293
   32PEO   H0F022002  -1.688   5.301   2.032 -0.7573 -1.5850  2.5319
   32PEO   H0F122003  -1.779   5.205   1.914  1.4548  0.0719 -0.1659
   32PEO   C0F222004  -1.786   5.291   1.983  0.2176 -0.2468  0.1328
   32PEO   C0F322005  -1.890   5.258   2.096  0.2632 -0.8339 -0.1820
   32PEO   H0F422006  -1.873   5.160   2.143  0.5362  0.7682  3.3924
   32PEO   H0F522007  -1.873   5.331   2.176 -2.4784 -1.4213  1.0560
   32PEO   O0F622008  -2.024   5.261   2.041 -0.0698  0.2955  0.9490
   32PEO   H0F722009  -2.123   5.385   2.176  1.2247 -0.2299 -0.0805
   32PEO   H0F822010  -2.140   5.205   2.202  1.3303  0.2988  0.5750
   32PEO   C0F922011  -2.139   5.287   2.129 -0.1741 -0.0999  0.0722
   32PEO   C0FA22012  -2.266   5.299   2.051 -0.3256 -0.4899  0.0845
   32PEO   H0FB22013  -2.325   5.381   2.095 -0.0705  1.2531 -2.6068
   32PEO   H0FC22014  -2.257   5.318   1.943  0.5416 -3.1636 -0.3921
   32PEO   O0FD22015  -2.347   5.191   2.072  0.0754 -0.0980 -0.1962
   32PEO   H0FE22016  -2.442   5.216   1.894 -0.5417  0.4144 -0.3857
   32PEO   H0FF22017  -2.524   5.295   2.029  0.2774 -0.1878  0.3890
   32PEO   C10022018  -2.471   5.204   2.000 -0.3435 -0.3044 -0.4111
   32PEO   C10122019  -2.560   5.081   2.032  0.4373  0.5492  0.3439
   32PEO   H10222020  -2.518   5.032   2.121 -0.6267 -2.1690 -0.5395
   32PEO   H10322021  -2.663   5.115   2.052  0.8388  1.1661  1.4298
   32PEO   O10422022  -2.567   4.993   1.920 -0.1041  0.3001 -0.3157
   32PEO   H10522023  -2.584   5.149   1.779  2.0751 -1.2753  0.2300
   32PEO   H10622024  -2.728   5.049   1.823  0.1340 -0.8593 -0.7031
   32PEO   C10722025  -2.620   5.048   1.801  0.4900 -0.5905  0.9412
   32PEO   C10822026  -2.581   4.951   1.687 -0.5346  0.0087  0.1625
   32PEO   H10922027  -2.482   4.986   1.651  0.0798  0.8259  2.4493
   32PEO   H10A22028  -2.573   4.852   1.733 -3.2186  1.1001  3.4020
   32PEO   O10B22029  -2.674   4.949   1.587  0.9698  0.1026  0.1031
   32PEO   H10C22030  -2.576   4.790   1.474  2.4535 -0.4578 -5.1941
   32PEO   H10D22031  -2.549   4.947   1.412 -1.6340  0.1210 -2.9730
   32PEO   C10E22032  -2.626   4.888   1.463  0.5656 -0.6144 -0.2677
   32PEO   C10F22033  -2.753   4.871   1.370  0.7421 -0.1136 -0.2517
   32PEO   H11022034  -2.725   4.794   1.297  0.4713 -1.4269  0.9879
   32PEO   H11122035  -2.844   4.832   1.417  1.7108  0.0840  1.9063
   32PEO   O11222036  -2.782   5.000   1.305 -0.4421 -0.0166 -0.0952
   32PEO   H11322037  -2.793   5.138   1.460 -0.7986 -1.4746  0.7582
   32PEO   H11422038  -2.949   5.044   1.434 -0.0001 -2.0887  0.5997
   32PEO   C11522039  -2.862   5.093   1.387 -0.8627 -0.7373  0.3509
   32PEO   C11622040  -2.908   5.212   1.295 -0.2771  0.5917 -0.5716
   32PEO   H11722041  -2.931   5.291   1.368 -0.8606 -2.2237  2.5212
   32PEO   H11822042  -2.824   5.237   1.229  0.9608  1.2716  1.1880
   32PEO   O11922043  -3.012   5.160   1.213 -0.4949 -0.6022 -0.0787
   32PEO   H11A22044  -3.132   5.188   1.042 -1.2917  0.9786  1.4474
   32PEO   H11B22045  -2.964   5.260   1.035  0.7019  1.0390  1.2109
   32PEO   C11C22046  -3.051   5.237   1.098  0.0398  0.4124  0.0945
   32PEO   C11D22047  -3.120   5.363   1.146  0.3235 -0.6901 -0.5860
   32PEO   H11E22048  -3.186   5.418   1.077  0.9734 -0.4881 -1.0616
   32PEO   H11F22049  -3.194   5.332   1.222  0.8779 -2.0233 -0.5709
   32PEO   O12022050  -3.022   5.455   1.200 -0.9396  0.1622 -0.7054
   32PEO   H12122051  -3.108   5.544   1.377  0.2225  2.6533  1.0837
   32PEO   H12222052  -3.181   5.600   1.233  0.0520 -1.1036  0.7780
   32PEO   C12322053  -3.083   5.568   1.273  0.6065  0.2602  0.5800
   32PEO   C12422054  -2.976   5.676   1.278 -0.3656  0.0476 -0.1465
   32PEO   H12522055  -2.927   5.676   1.180  0.9162  0.5417  0.4789
   32PEO   H12622056  -3.020   5.774   1.302  0.8357  0.1386  1.8999
   32PEO   O12722057  -2.879   5.644   1.383 -0.1856  0.2131  0.2417
   32PEO   H12822058  -2.693   5.714   1.443 -1.1160 -0.7916  0.6003
   32PEO   H12922059  -2.751   5.785   1.305  1.0078  0.9318  2.0158
   32PEO   C12A22060  -2.744   5.685   1.350 -0.2959 -0.1571 -0.0596
   32PEO   C12B22061  -2.652   5.595   1.262  0.0893  0.3677  0.1160
   32PEO   H12C22062  -2.724   5.555   1.189 -0.3769  2.1210 -0.4533
   32PEO   H12D22063  -2.564   5.647   1.220  0.8887 -0.6989  0.4376
   32PEO   O12E22064  -2.606   5.492   1.346 -0.3194  0.0622 -0.4256
   32PEO   H12F22065  -2.455   5.405   1.221  0.5982 -3.3212 -1.7459
   32PEO   H13022066  -2.617   5.344   1.196 -0.9822  1.8156 -0.6551
   32PEO   C13122067  -2.547   5.376   1.274 -0.0606  0.1393 -0.7417
   32PEO   C13222068  -2.516   5.254   1.357 -0.5727 -0.1197  0.4341
   32PEO   H13322069  -2.587   5.232   1.438  0.9245 -2.2533  1.2719
   32PEO   H13422070  -2.519   5.159   1.302 -2.1361  0.1573 -0.0075
   32PEO   O13522071  -2.392   5.281   1.422  0.0099  0.2736  0.1699
   32PEO   H13622072  -2.358   5.089   1.506  1.4496 -0.8285  0.3001
   32PEO   H13722073  -2.408   5.214   1.620  0.7178  0.2958  0.3030
   32PEO   C13822074  -2.346   5.196   1.531  0.6892 -0.7819  0.4932
   32PEO   C13922075  -2.201   5.208   1.559 -0.4177 -0.2042 -0.7921
   32PEO   H13A22076  -2.171   5.137   1.637 -4.2147  0.3509  1.4033
   32PEO   H13B22077  -2.152   5.178   1.465  1.9056 -2.5491  1.0163
   32PEO   O13C22078  -2.163   5.325   1.620 -1.6004 -0.0655 -0.1631
   32PEO   H13D22079  -1.994   5.240   1.709  1.3912 -0.4633 -1.4930
   32PEO   H13E22080  -1.985   5.423   1.701  0.9180  1.1920 -1.5704
   32PEO   C13F22081  -2.015   5.330   1.650 -0.0679  0.4325  0.2945
   32PEO   C14022082  -1.936   5.316   1.516  0.5832 -0.3269 -1.2982
   32PEO   H14122083  -1.832   5.341   1.544  0.0892  0.3821 -0.0238
   32PEO   H14222084  -1.943   5.211   1.485 -0.8343 -0.5653 -0.2233
   32PEO   O14322085  -1.989   5.416   1.422 -0.1109 -0.8760 -0.0316
   32PEO   H14422086  -1.809   5.469   1.317  1.0229 -1.3124 -0.8614
   32PEO   H14522087  -1.952   5.514   1.237  0.8230 -0.0600  0.1697
   32PEO   C14622088  -1.912   5.434   1.300  0.2177  0.0696  0.7363
   32PEO   C14722089  -1.917   5.308   1.213 -0.4641  0.2548 -0.3700
   32PEO   H14822090  -1.823   5.317   1.155 -1.1536 -0.0525 -1.5733
   32PEO   H14922091  -1.912   5.212   1.266 -3.1018 -0.1296 -0.7215
   32PEO   O14A22092  -2.029   5.307   1.119  0.3327 -0.2537  0.3030
   32PEO   H14B22093  -2.207   5.325   1.237  0.4325  1.3578  0.9568
   32PEO   H14C22094  -2.138   5.161   1.226  0.3330  0.3641 -0.6721
   32PEO   C14D22095  -2.154   5.254   1.171 -0.0975  1.1519  0.7445
   32PEO   C14E22096  -2.245   5.211   1.055 -0.7889 -0.1910  0.3220
   32PEO   H14F22097  -2.177   5.163   0.983 -1.2900  2.4808 -2.1174
   32PEO   H15022098  -2.325   5.141   1.087  0.0638 -0.7418  1.3166
   32PEO   O15122099  -2.304   5.325   0.986  0.3739 -0.3240  0.1602
   32PEO   H15222100  -2.452   5.204   0.902  1.3023  0.3507 -0.0182
   32PEO   H15322101  -2.315   5.227   0.792  0.0807 -2.0935  0.4167
   32PEO   C15422102  -2.377   5.277   0.869  0.3459  0.8547 -1.1537
   32PEO   C15522103  -2.442   5.401   0.806  0.4699 -0.4038 -0.4874
   32PEO   H15622104  -2.521   5.372   0.735 -0.0791 -0.8678  0.2977
   32PEO   H15722105  -2.483   5.473   0.880  1.4135  1.4105 -1.6493
   32PEO   O15822106  -2.338   5.466   0.737  0.6924  0.5710 -0.5104
   32PEO   H15922107  -2.293   5.658   0.669  2.0845 -1.8504  1.0847
   32PEO   H15A22108  -2.465   5.633   0.687 -0.0771 -0.8687  0.3650
   32PEO   C15B22109  -2.373   5.583   0.654  0.3156  0.1867 -0.1602
   32PEO   C15C22110  -2.388   5.526   0.510 -0.1359 -0.5864  0.3656
   32PEO   H15D22111  -2.473   5.455   0.516  0.4816 -1.2695  1.5169
   32PEO   H15E22112  -2.407   5.609   0.441 -0.3011 -1.0343 -0.1345
   32PEO   O15F22113  -2.270   5.460   0.459 -0.4910 -0.2405 -0.3802
   32PEO   H16022114  -2.112   5.567   0.549  0.1590 -0.7508 -1.0240
   32PEO   H16122115  -2.172   5.637   0.393  0.0411 -0.5984 -1.7904
   32PEO   C16222116  -2.154   5.544   0.450 -0.3480 -0.1702 -0.9509
   32PEO   C16322117  -2.044   5.466   0.376 -0.4961 -0.3676 -0.3440
   32PEO   H16422118  -2.097   5.388   0.320  0.1270  0.6755 -2.4975
   32PEO   H16522119  -1.984   5.529   0.308  0.2182 -1.2786 -0.5839
   32PEO   O16622120  -1.959   5.415   0.483  0.2841 -0.3810 -0.8445
   32PEO   H16722121  -2.009   5.218   0.544 -0.6742 -0.3872 -0.1439
   32PEO   H16822122  -2.099   5.343   0.619  0.1380 -3.0974  2.6771
   32PEO   C16922123  -1.998   5.321   0.583 -0.0600 -0.6017  0.2635
   32PEO   C16A22124  -1.890   5.322   0.694 -0.1549  0.4856 -0.5449
   32PEO   H16B22125  -1.927   5.264   0.780 -2.5403  1.5585 -0.7622
   32PEO   H16C22126  -1.797   5.277   0.656  1.0732 -0.1124  2.8174
   32PEO   O16D22127  -1.864   5.454   0.737 -0.5920 -0.5627 -0.7143
   32PEO   H16E22128  -1.948   5.446   0.927  0.4200  0.2217  0.8340
   32PEO   H16F22129  -2.058   5.467   0.794 -0.3609 -0.3085  2.3322
   32PEO   C17022130  -1.960   5.500   0.832  0.1894 -0.0066  0.7327
   32PEO   C17122131  -1.959   5.657   0.851  0.4796  0.1319 -0.3667
   32PEO   H17222132  -1.971   5.710   0.756  0.9331  1.2051  0.1631
   32PEO   H17322133  -2.045   5.689   0.911 -1.3261  0.0029 -2.7714
   32PEO   O17422134  -1.827   5.700   0.902  0.5390 -0.4816  0.4992
   32PEO   H17522135  -1.798   5.528   1.034  0.7714  0.1639  1.5169
   32PEO   H17622136  -1.857   5.674   1.105 -1.1356  0.6100  0.1182
   32PEO   C17722137  -1.793   5.638   1.023 -0.4929  0.1773  0.7987
   32PEO   C17822138  -1.650   5.688   1.050  0.4720  0.6806  0.5727
   32PEO   H17922139  -1.594   5.614   1.109  1.8253  1.5319  0.4122
   32PEO   H17A22140  -1.600   5.695   0.952 -0.4006 -0.2774  0.0467
   32PEO   O17B22141  -1.662   5.807   1.121  0.4215 -0.3689  0.1002
   32PEO   H17C22142  -1.543   5.923   1.005 -0.4702 -1.1639 -0.1906
   32PEO   H17D22143  -1.460   5.847   1.143 -2.6577 -3.4361  2.3812
   32PEO   C17E22144  -1.551   5.901   1.113 -0.1197 -0.0205  0.0820
   32PEO   C17F22145  -1.574   6.043   1.184  0.9127 -0.3437  0.0124
   32PEO   H18022146  -1.519   6.122   1.131 -0.5219  0.9806  0.3907
   32PEO   H18122147  -1.679   6.066   1.161  0.9095 -1.3362 -1.0389
   32PEO   O18222148  -1.550   6.027   1.325 -0.1486 -0.6690  0.3056
   32PEO   H18322149  -1.607   6.210   1.405  0.7594  1.0234  1.5720
   32PEO   H18422150  -1.427   6.198   1.351  1.7509 -1.0207  0.4519
   32PEO   C18522151  -1.515   6.151   1.398  0.6408  0.9425  0.4776
   32PEO   C18622152  -1.470   6.122   1.540 -0.0803  0.2557 -0.2057
   32PEO   H18722153  -1.372   6.073   1.534 -0.8159 -1.3839  0.5423
   32PEO   H18822154  -1.464   6.219   1.592 -0.5989  0.2371 -0.1077
   32PEO   O18922155  -1.561   6.044   1.605 -0.1035 -0.8917  0.3613
   32PEO   H18A22156  -1.481   6.097   1.797 -0.7296 -0.5434  2.1482
   32PEO   H18B22157  -1.423   5.942   1.726  0.7164  0.8594  0.6333
   32PEO   C18C22158  -1.511   6.007   1.741  0.2113  0.2725  0.2426
   32PEO   C18D22159  -1.627   5.939   1.821  0.3527 -0.6564 -0.6694
   32PEO   H18E22160  -1.679   5.861   1.765  0.9539 -0.6041 -1.3169
   32PEO   H18F22161  -1.591   5.896   1.916 -4.7925  1.2310  2.5531
   32PEO   O19022162  -1.716   6.050   1.853 -0.3698 -0.0639 -0.2780
   32PEO   H19122163  -1.909   6.020   1.754 -1.6068  1.0179 -3.1043
   32PEO   H19222164  -1.779   6.099   1.658  1.7898  0.6629  1.1848
   32PEO   C19322165  -1.822   6.087   1.758 -0.5624 -0.3564  0.1327
   32PEO   C19422166  -1.879   6.227   1.801  0.1182  0.2367  1.0815
   32PEO   H19522167  -1.969   6.241   1.740  0.0509 -0.7715  0.9169
   32PEO   H19622168  -1.909   6.225   1.906 -0.2377  0.7062  0.9894
   32PEO   O19722169  -1.779   6.334   1.778  0.4844 -0.1975  0.0102
   32PEO   H19822170  -1.938   6.460   1.739 -0.2543 -1.1129 -1.1821
   32PEO   H19922171  -1.769   6.521   1.712 -0.5385  0.1067  0.0738
   32PEO   C19A22172  -1.836   6.466   1.780 -0.6769 -0.1020 -0.2285
   32PEO   C19B22173  -1.826   6.528   1.923  0.5530  0.1835  0.3028
   32PEO   H19C22174  -1.723   6.526   1.960  0.6270  3.4401  0.5875
   32PEO   H19D22175  -1.854   6.633   1.906 -0.0371  0.1474  0.9737
   32PEO   O19E22176  -1.921   6.459   2.012  0.7336 -0.0882 -0.6377
   32PEO   H19F22177  -1.951   6.630   2.137  0.0247 -0.4213 -0.5207
   32PEO   H1A022178  -1.824   6.528   2.187 -0.3858  1.3912 -0.0273
   32PEO   C1A122179  -1.923   6.523   2.140  0.0030 -0.4340 -0.7492
   32PEO   C1A222180  -2.002   6.442   2.246  0.5717 -0.1394  1.2360
   32PEO   H1A322181  -1.964   6.339   2.240 -0.3916 -0.4401 -1.8876
   32PEO   H1A422182  -1.996   6.497   2.341 -0.4502  0.1485  1.1425
   32PEO   O1A522183  -2.138   6.444   2.191 -0.7953 -0.3091  0.1917
   32PEO   H1A622184  -2.227   6.504   2.353  4.0087  0.8402 -0.8993
   32PEO   H1A722185  -2.202   6.339   2.365  1.0186  1.4151  1.2325
   32PEO   C1A822186  -2.236   6.414   2.291 -0.4395  0.0775  0.4880
   32PEO   C1A922187  -2.380   6.382   2.226 -0.0163  0.1512 -0.9814
   32PEO   H1AA22188  -2.455   6.385   2.306 -0.2352 -1.2998 -1.1065
   32PEO   H1AB22189  -2.400   6.449   2.140  0.3556  1.0218 -0.4043
   32PEO   O1AC22190  -2.375   6.256   2.169  0.0318 -0.7943 -0.1535
   32PEO   H1AD22191  -2.544   6.257   2.042 -0.6766 -2.2881 -0.4948
   32PEO   H1AE22192  -2.554   6.185   2.209 -0.5001  0.8518  0.3876
   32PEO   C1AF22193  -2.493   6.198   2.119  0.3580  0.2314  0.8627
   32PEO   C1B022194  -2.453   6.062   2.058 -0.2326  0.4223 -0.1370
   32PEO   H1B122195  -2.371   6.015   2.114 -1.9909  0.6377  2.8209
   32PEO   H1B222196  -2.535   5.988   2.060 -0.0129  0.1720 -0.2825
   32PEO   O1B322197  -2.417   6.092   1.924  0.1622 -0.1186 -0.7908
   32PEO   H1B422198  -2.311   5.909   1.896  3.9995 -0.6923  0.7462
   32PEO   H1B522199  -2.212   6.063   1.892  0.6193 -0.8784 -0.4595
   32PEO   C1B622200  -2.309   6.016   1.872  0.1985 -0.5165  0.6317
   32PEO   C1B722201  -2.303   6.018   1.721  0.9023  0.4238  0.1972
   32PEO   H1B822202  -2.328   6.118   1.682  1.1322  0.7506  0.8693
   32PEO   H1B922203  -2.209   5.979   1.679 -0.6763 -4.0032  0.2719
   32PEO   O1BA22204  -2.404   5.927   1.666  0.0233 -0.1974 -0.0708
   32PEO   H1BB22205  -2.297   5.957   1.482 -0.6258  1.2332  1.5943
   32PEO   H1BC22206  -2.469   5.987   1.474  0.8566  0.6386 -1.1481
   32PEO   C1BD22207  -2.394   5.921   1.520 -0.6113  0.0893  0.6124
   32PEO   C1BE22208  -2.418   5.779   1.466 -0.5170  0.7754  0.4583
   32PEO   H1BF22209  -2.472   5.711   1.533  0.9510 -2.2779 -1.2752
   32PEO   H1C022210  -2.483   5.781   1.378 -0.2575 -1.6811  0.1470
   32PEO   O1C122211  -2.290   5.729   1.432  0.3881  0.7295  0.0078
   32PEO   H1C222212  -2.388   5.555   1.360  0.3757 -2.7840  0.5749
   32PEO   H1C322213  -2.228   5.518   1.421 -0.8664  0.0015 -1.5407
   32PEO   C1C422214  -2.286   5.595   1.367 -0.6800  0.6091 -0.8861
   32PEO   C1C522215  -2.223   5.617   1.225 -0.3960 -0.1875 -0.9259
   32PEO   H1C622216  -2.128   5.673   1.224  0.5841 -1.7630 -0.3105
   32PEO   H1C722217  -2.199   5.523   1.172 -2.3340 -1.2912  0.0362
   32PEO   O1C822218  -2.325   5.697   1.162  0.1201 -0.1513  0.0747
   32PEO   H1C922219  -2.298   5.659   0.973  1.1455  0.1333  0.5555
   32PEO   H1CA22220  -2.204   5.799   1.025 -0.3191  1.5228 -1.2175
   32PEO   C1CB22221  -2.302   5.750   1.035  0.3103  0.4717  0.0225
   32PEO   C1CC22222  -2.418   5.839   0.986  0.6755  0.2505 -0.2518
   32PEO   H1CD22223  -2.400   5.848   0.878  0.0638 -0.7985 -0.4607
   32PEO   H1CE22224  -2.517   5.797   1.009  0.0211  1.9370  0.1075
   32PEO   O1CF22225  -2.403   5.969   1.044 -0.2753 -0.3273 -0.8702
   32PEO   H1D022226  -2.301   5.942   1.232  0.4718 -1.8823 -2.5119
   32PEO   H1D122227  -2.476   5.910   1.235  1.0142 -0.2787  1.6477
   32PEO   C1D222228  -2.398   5.974   1.191 -0.0833  0.0858  0.1206
   32PEO   C1D322229  -2.415   6.111   1.239 -0.4078  0.1846 -0.7347
   32PEO   H1D422230  -2.370   6.108   1.339 -1.6373  0.2451 -0.1568
   32PEO   H1D522231  -2.355   6.179   1.177  0.8053 -1.9421 -2.0039
   32PEO   O1D622232  -2.556   6.161   1.232  0.1446  0.2376  0.1685
   32PEO   H1D722233  -2.625   6.076   1.038 -0.4047  0.7108 -0.4890
   32PEO   H1D822234  -2.547   6.233   1.029 -1.7874  4.0719  1.0803
   32PEO   C1D922235  -2.610   6.170   1.093  0.4925  0.3268 -0.0682
   32PEO   C1DA22236  -2.748   6.239   1.096 -0.0403  0.3084  0.5902
   32PEO   H1DB22237  -2.783   6.250   0.993 -1.1213 -2.4297  0.5909
   32PEO   H1DC22238  -2.801   6.166   1.158  0.5182  0.6688  1.5220
   32PEO   O1DD22239  -2.732   6.371   1.145 -0.2021  0.1744 -0.0170
   32PEO   H1DE22240  -2.931   6.404   1.163  1.0402 -3.0550 -0.8072
   32PEO   H1DF22241  -2.831   6.526   1.246 -4.0099  1.3402 -0.6458
   32PEO   C1E022242  -2.842   6.418   1.225 -0.2897  0.5877  0.5060
   32PEO   C1E122243  -2.844   6.337   1.358 -0.4608 -0.0050 -0.2477
   32PEO   H1E222244  -2.752   6.277   1.361 -0.4008  0.0069 -1.3845
   32PEO   H1E322245  -2.832   6.409   1.441  1.6739 -1.0271  0.4005
   32PEO   O1E422246  -2.968   6.263   1.363 -0.7806  0.3815  0.0031
   32PEO   H1E522247  -2.936   6.148   1.548 -0.4153  0.9639 -0.0183
   32PEO   H1E622248  -2.905   6.065   1.399  2.6298  2.8928 -0.5632
   32PEO   C1E722249  -2.973   6.137   1.446 -0.6893 -0.3943  0.2031
   32PEO   C1E822250  -3.118   6.090   1.451  0.1232 -0.8706  0.1700
   32PEO   H1E922251  -3.134   6.023   1.537 -1.2412  2.2157  2.5274
   32PEO   H1EA22252  -3.174   6.182   1.471 -0.5562 -1.2520  0.0188
   32PEO   O1EB22253  -3.157   6.023   1.331  0.5608  0.1288 -0.0264
   32PEO   H1EC22254  -3.092   6.142   1.172 -0.1249  1.3114  1.7512
   32PEO   H1ED22255  -3.256   6.179   1.228  0.2002  0.4331 -0.5118
   32PEO   C1EE22256  -3.184   6.097   1.211 -0.4248 -0.1302 -0.4397
   32PEO   C1EF22257  -3.250   5.995   1.110 -0.3541 -0.2627  0.3385
   32PEO   H1F022258  -3.315   5.923   1.161  1.0753 -2.5604 -0.9069
   32PEO   H1F122259  -3.314   6.044   1.036  0.8240  0.9469  0.0707
   32PEO   O1F222260  -3.144   5.928   1.031  0.5421 -0.5448  0.4934
   32PEO   H1F322261  -3.114   5.851   0.838  1.0729  2.0197  1.0238
   32PEO   H1F422262  -3.265   5.941   0.858  0.1432 -0.2614 -0.2821
   32PEO   C1F522263  -3.200   5.866   0.905 -0.1337 -0.2613  0.1113
   32PEO   C1F622264  -3.281   5.735   0.934  0.1894  0.7701  0.6062
   32PEO   H1F722265  -3.261   5.666   0.852 -0.0113  0.5092  0.7758
   32PEO   H1F822266  -3.240   5.683   1.022  0.4940  0.4218  0.2580
   32PEO   O1F922267  -3.420   5.767   0.949  0.1467 -0.3107  0.4893
   32PEO   H1FA22268  -3.439   5.586   1.043 -0.3593 -3.6884 -2.9406
   32PEO   H1FB22269  -3.477   5.594   0.873  4.2130  0.9185  0.3001
   32PEO   C1FC22270  -3.492   5.647   0.968 -0.2094  0.5136  0.0353
   32PEO   C1FD22271  -3.641   5.673   0.999 -0.0929 -0.5377  0.3075
   32PEO   H1FE22272  -3.687   5.728   0.915 -1.1953 -0.3926  0.9782
   32PEO   H1FF22273  -3.688   5.574   0.998 -1.6431  0.1592  0.0841
   32PEO   O20022274  -3.669   5.736   1.126  0.5300  0.4046 -0.3155
   32PEO   H20122275  -3.738   5.920   1.050  1.5233  2.5426 -0.4398
   32PEO   H20222276  -3.568   5.914   1.091  0.2458 -1.6858 -2.3243
   32PEO   C20322277  -3.668   5.884   1.127  0.2068  0.8376  0.0298
   32PEO   C20422278  -3.703   5.939   1.269  0.1456  0.1126 -0.3258
   32PEO   H20522279  -3.738   6.043   1.263 -2.0512 -0.5135  0.6554
   32PEO   H20622280  -3.786   5.880   1.311 -0.1892  0.4086 -0.5574
   32PEO   O20722281  -3.585   5.938   1.349 -0.6389 -0.0205  0.2517
   32PEO   H20822282  -3.678   5.923   1.526 -0.3653 -0.7729 -0.8275
   32PEO   H20922283  -3.606   6.087   1.484 -1.0173  0.4494 -2.8507
   32PEO   C20A22284  -3.593   5.978   1.482 -0.2179  0.3647  0.7702
   32PEO   C20B22285  -3.457   5.932   1.549 -0.0937 -0.4108 -0.4239
   32PEO   H20C22286  -3.376   5.981   1.492  0.3831  0.3860  0.8810
   32PEO   H20D22287  -3.444   5.980   1.647 -1.4843  2.9827 -1.7121
   32PEO   O20E22288  -3.456   5.787   1.552  0.3644  0.6990 -0.6044
   32PEO   H20F22289  -3.282   5.732   1.442  0.2879  0.6252 -1.0843
   32PEO   H21022290  -3.422   5.787   1.351  1.1621  1.9308  0.4871
   32PEO   C21122291  -3.392   5.727   1.438  0.2434  0.6086 -0.0700
   32PEO   C21222292  -3.441   5.579   1.411 -0.1567  0.1333 -0.1104
   32PEO   H21322293  -3.551   5.571   1.413 -0.2181  0.8446  1.6597
   32PEO   H21422294  -3.413   5.544   1.311 -0.7028 -4.4636  1.1208
   32PEO   O21522295  -3.371   5.489   1.503  0.6029  0.2856  0.0566
   32PEO   H21622296  -3.532   5.461   1.632  0.6071 -0.1869  3.2003
   32PEO   H21722297  -3.418   5.591   1.675 -0.6134  0.5481  0.4584
   32PEO   C21822298  -3.426   5.488   1.636  0.6115  0.5198  0.2474
   32PEO   C21922299  -3.354   5.403   1.734  0.4186  0.4427  0.7272
   32PEO   H21A22300  -3.294   5.333   1.675  2.4211  2.4030  0.2985
   32PEO   H21B22301  -3.283   5.469   1.786  0.0521  0.1025  1.6778
   32PEO   O21C22302  -3.448   5.340   1.822  0.0616  0.0803 -0.2450
   32PEO   H21D22303  -3.413   5.154   1.746  0.6412  0.5615  0.2959
   32PEO   H21E22304  -3.554   5.224   1.690  2.2462 -1.3405 -2.0702
   32PEO   C21F22305  -3.497   5.215   1.784  0.1132  0.3448 -0.5014
   32PEO   C22022306  -3.577   5.146   1.903 -0.2803 -0.2564 -0.0143
   32PEO   H22122307  -3.614   5.043   1.902  2.1929 -1.2336  1.5517
   32PEO   H22222308  -3.515   5.151   1.994  1.5506  0.2836 -1.2449
   32PEO   O22322309  -3.690   5.233   1.899 -0.3029  0.4732 -0.2773
   32PEO   H22422310  -3.834   5.282   2.043 -0.6910  0.4978 -2.5211
   32PEO   H22522311  -3.758   5.116   2.061  1.0627  0.8324  0.6039
   32PEO   C22622312  -3.793   5.194   1.991  0.5331 -0.2576 -0.3812
   32PEO   C22722313  -3.913   5.129   1.915  0.3611 -0.6103  0.6220
   32PEO   H22822314  -3.921   5.149   1.807 -1.0706 -2.4254  0.3528
   32PEO   H22922315  -3.916   5.020   1.929  0.5111 -0.6068  0.6861
   32PEO   O22A22316  -4.033   5.194   1.963 -0.1394 -0.5893 -0.1130
   32PEO   H22B22317  -4.011   5.103   2.154 -0.4920  1.4461  0.5161
   32PEO   H22C22318  -4.115   5.020   2.046 -1.6441 -0.0702  2.0973
   32PEO   C22D22319  -4.084   5.122   2.074  0.5804  0.1887 -0.8054
   32PEO   C22E22320  -4.195   5.219   2.124 -0.8990  0.5466 -0.2182
   32PEO   H22F22321  -4.274   5.230   2.049 -0.8248  0.4153 -0.3164
   32PEO   H23022322  -4.231   5.174   2.218  3.5218 -2.6421  0.2904
   32PEO   O23122323  -4.132   5.340   2.175 -0.1492 -0.4696  1.1082
   32PEO   H23222324  -4.289   5.394   2.302  1.5776 -2.1185  0.4875
   32PEO   H23322325  -4.303   5.460   2.144  1.2190 -2.0697 -1.0671
   32PEO   C23422326  -4.229   5.441   2.223  0.2636 -1.0469  0.1016
   32PEO   C23522327  -4.155   5.574   2.264 -0.1570  0.1398 -0.5717
   32PEO   H23622328  -4.052   5.586   2.227 -1.3406  1.1864 -3.9030
   32PEO   H23722329  -4.205   5.659   2.215  0.6157  1.4986  0.9051
   32PEO   O23822330  -4.168   5.574   2.406  0.4510 -0.1201  0.0376
   32PEO   H23922331  -4.185   5.771   2.429 -0.4688 -1.0139 -0.9149
   32PEO   H23A22332  -4.012   5.710   2.441  1.2860  1.2228  3.7367
   32PEO   C23B22333  -4.118   5.692   2.466  0.3504 -0.0580 -0.3015
   32PEO   C23C22334  -4.133   5.691   2.622 -0.6479  0.4245 -0.2353
   32PEO   H23D22335  -4.074   5.605   2.659 -1.8297 -0.4282 -0.2905
   32PEO   H23E22336  -4.090   5.785   2.660 -0.8930  2.4628 -4.3669
   32PEO   O23F22337  -4.267   5.671   2.658  0.1264 -0.5262 -0.4393
   32PEO   H24022338  -4.272   5.489   2.759 -0.2266  1.2747  0.1855
   32PEO   H24122339  -4.253   5.462   2.586  3.8429  0.8833  0.6400
   32PEO   C24222340  -4.298   5.529   2.661  0.7414  0.2799 -0.5073
   32PEO   C24322341  -4.447   5.517   2.652  0.3837 -0.3595  1.2169
   32PEO   H24422342  -4.477   5.533   2.547  0.1133  0.3477  1.3952
   32PEO   H24522343  -4.473   5.411   2.669  4.2580 -1.8307 -0.7368
   32PEO   O24622344  -4.521   5.599   2.751 -0.5812  0.3164 -0.6096
   32PEO   H24722345  -4.676   5.458   2.794 -0.2875  1.7534  2.2701
   32PEO   H24822346  -4.696   5.573   2.662  2.2039  0.8543 -1.5233
   32PEO   C24922347  -4.663   5.564   2.766 -0.0808  1.0118 -0.7084
   32PEO   C24A22348  -4.725   5.665   2.866  0.4216 -0.6048 -0.4986
   32PEO   H24B22349  -4.685   5.764   2.838  1.3991 -0.8645 -0.0381
   32PEO   H24C22350  -4.835   5.658   2.869  0.2023  1.8077  2.3009
   32PEO   O24D22351  -4.689   5.647   3.000 -0.4760 -0.7006 -0.2171
   32PEO   H24E22352  -4.844   5.759   3.087  0.2318  0.4796 -1.8505
   32PEO   H24F22353  -4.681   5.838   3.054  0.5389 -0.3208  1.7161
   32PEO   C25022354  -4.734   5.748   3.086  0.2708 -0.3522  1.1985
   32PEO   C25122355  -4.696   5.720   3.234 -0.1631 -0.3634  0.3818
   32PEO   H25222356  -4.587   5.737   3.245 -0.1460  1.1462 -1.5188
   32PEO   H25322357  -4.740   5.803   3.292  1.3678 -0.9869  2.5977
   32PEO   O25422358  -4.730   5.582   3.263  0.0699 -0.4284  0.2144
   32PEO   H25522359  -4.624   5.623   3.446  1.8843 -2.7811  0.3278
   32PEO   H25622360  -4.670   5.461   3.430  1.7453  0.1426 -0.4002
   32PEO   C25722361  -4.710   5.563   3.412  0.0498 -0.3471  0.3247
   32PEO   C25822362  -4.845   5.583   3.483 -0.0490 -0.5103  0.1958
   32PEO   H25922363  -4.922   5.517   3.441 -1.8943  0.8348  1.3055
   32PEO   H25A22364  -4.832   5.539   3.583 -2.0557 -0.8262  0.3690
   32PEO   O25B22365  -4.893   5.723   3.505  0.1768 -0.0582  0.2002
   32PEO   H25C22366  -5.078   5.643   3.545  1.3578  0.1967 -1.1981
   32PEO   H25D22367  -5.086   5.811   3.556 -1.0013 -0.4681  1.2963
   32PEO   C25E22368  -5.016   5.728   3.575  0.4676  0.4379  0.0552
   32PEO   C25F22369  -4.990   5.721   3.724 -0.2932  0.9296 -0.0100
   32PEO   H26022370  -4.895   5.770   3.750 -1.6698  3.9936 -0.3072
   32PEO   H26122371  -5.076   5.775   3.766 -1.6267 -1.5195  0.6188
   32PEO   O26222372  -4.982   5.586   3.774  0.0070 -0.4404  1.0597
   32PEO   H26322373  -5.042   5.605   3.982  1.5697 -0.5949  1.7418
   32PEO   H26422374  -4.867   5.605   3.946  0.1856  0.0216  0.2344
   32PEO   C26522375  -4.964   5.564   3.916  0.4178 -0.6588  0.3926
   32PEO   C26622376  -4.959   5.417   3.948 -0.4438  0.1527 -0.3917
   32PEO   H26722377  -4.880   5.363   3.894  1.4766  2.7269 -0.3090
   32PEO   H26822378  -4.947   5.409   4.057  0.4125 -1.0999 -0.5498
   32PEO   O26922379  -5.087   5.368   3.907  0.1665  0.0307 -0.3359
   32PEO   H26A22380  -5.150   5.251   4.052  0.3825  0.0914  0.2543
   32PEO   H26B22381  -5.019   5.184   3.961 -0.8426  0.0045  2.1734
   32PEO   C26C22382  -5.114   5.238   3.948 -0.6551 -0.0879 -0.0913
   32PEO   C26D22383  -5.227   5.180   3.863  0.5014  0.2398  0.7097
   32PEO   H26E22384  -5.209   5.204   3.757  0.5454  0.9205  0.8657
   32PEO   H26F22385  -5.216   5.071   3.863 -1.4063  0.0160  0.4954
   32PEO   O27022386  -5.351   5.222   3.912  0.7878  0.3073  0.0973
   32PEO   H27122387  -5.467   5.063   3.858 -1.0574  0.2088  2.0078
   32PEO   H27222388  -5.449   5.173   3.716  0.7564  0.8493 -0.0115
   32PEO   C27322389  -5.465   5.168   3.824 -0.2978 -0.4523 -0.1984
   32PEO   C27422390  -5.597   5.235   3.857 -0.3082 -0.2880 -0.2407
   32PEO   H27522391  -5.587   5.344   3.857 -0.3559 -0.2759 -0.9951
   32PEO   H27622392  -5.662   5.214   3.770  0.5259  0.1583 -0.9917
   32PEO   O27722393  -5.657   5.178   3.970  0.6210 -0.1105  0.4171
   32PEO   H27822394  -5.595   5.318   4.126 -2.0067 -1.6115  4.7892
   32PEO   H27922395  -5.497   5.165   4.097 -1.0230 -2.3179  1.0079
   32PEO   C27A22396  -5.597   5.211   4.097 -0.2732 -0.5763 -0.1731
   32PEO   C27B22397  -5.689   5.134   4.199 -0.3586 -0.3149 -0.5713
   32PEO   H27C22398  -5.690   5.028   4.169  1.5378  0.0910 -2.2620
   32PEO   H27D22399  -5.666   5.139   4.306 -2.2363 -2.1836 -0.0080
   32PEO   O27E22400  -5.821   5.186   4.192  0.0513 -0.2482 -0.5189
   32PEO   H27F22401  -5.999   5.214   4.300 -0.7759 -0.5978 -0.2308
   32PEO   H28022402  -5.872   5.140   4.392 -0.2910  0.6423  0.7492
   32PEO   C28122403  -5.918   5.140   4.292  0.0104  0.1523  0.6049
   32PEO   C28222404  -5.971   4.995   4.268  0.0930  0.1511  1.2602
   32PEO   H28322405  -6.066   4.990   4.323 -0.9848  0.0378 -0.5166
   32PEO   H28422406  -6.005   4.981   4.164  1.5490 -1.9023  1.0085
   32PEO   O28522407  -5.878   4.896   4.323  0.6778  0.3872  0.4342
   32PEO   H28622408  -5.979   4.727   4.269  1.4437  0.9730 -2.0226
   32PEO   H28722409  -6.010   4.797   4.436  2.2417 -0.0446  1.8388
   32PEO   C28822410  -5.935   4.772   4.359 -0.2026  0.0379 -0.7031
   32PEO   C28922411  -5.822   4.687   4.433  0.1522 -0.6434  0.1961
   32PEO   H28A22412  -5.788   4.746   4.519 -1.6916  0.1351  0.4271
   32PEO   H28B22413  -5.870   4.595   4.471 -0.0056  0.3972  2.6789
   32PEO   O28C22414  -5.712   4.657   4.341 -0.1945 -0.3287  0.6958
   32PEO   H28D22415  -5.611   4.523   4.464  0.5885 -0.4276 -0.2215
   32PEO   H28E22416  -5.566   4.695   4.486  1.1462 -1.4461  1.0029
   32PEO   C28F22417  -5.593   4.618   4.412  0.0490 -0.1822  0.0338
   32PEO   C29022418  -5.481   4.566   4.316 -0.2837  0.2123 -0.1019
   32PEO   H29122419  -5.423   4.486   4.363 -1.4107 -1.1317 -0.9076
   32PEO   H29222420  -5.531   4.517   4.231 -2.0215 -1.1999  1.6424
   32PEO   O29322421  -5.406   4.666   4.270 -0.4969 -0.0801  0.5425
   32PEO   H29422422  -5.488   4.862   4.272  1.6553  2.2492 -2.4582
   32PEO   H29522423  -5.555   4.745   4.157  0.0421  0.4057 -1.3419
   32PEO   C29622424  -5.463   4.778   4.206 -0.3069 -0.3174 -0.1546
   32PEO   C29722425  -5.361   4.843   4.112 -0.4616  0.4539  0.5493
   32PEO   H29822426  -5.344   4.797   4.013  1.4706  1.8258  0.1826
   32PEO   H29922427  -5.395   4.946   4.091 -0.4078  0.1336 -1.3279
   32PEO   O29A22428  -5.227   4.844   4.171  1.1211 -0.0825  0.0984
   32PEO   H29B22429  -5.178   5.018   4.084  4.1285  1.7673 -0.8772
   32PEO   H29C22430  -5.132   4.867   4.001 -0.1186  0.5666 -1.0831
   32PEO   C29D22431  -5.135   4.918   4.098 -0.1620 -0.2625 -0.6469
   32PEO   C29E22432  -4.991   4.924   4.164  0.1752  0.4037  0.0895
   32PEO   H29F22433  -4.974   4.855   4.249  0.4448 -1.1947 -1.2056
   32PEO   H2A022434  -4.910   4.896   4.095  0.3829 -2.4123  1.3328
   32PEO   O2A122435  -4.968   5.061   4.194  0.0471  0.1267  0.2308
   32PEO   H2A222436  -4.998   5.037   4.399  0.4704  0.6858  0.8318
   32PEO   H2A322437  -5.141   5.090   4.308 -0.0043  1.2072  0.7821
   32PEO   C2A422438  -5.031   5.102   4.316  0.2605 -0.4612 -0.0032
   32PEO   C2A522439  -5.004   5.250   4.349  0.8536  0.2363  0.1613
   32PEO   H2A622440  -5.033   5.253   4.455 -1.1541  0.4352 -0.3643
   32PEO   H2A722441  -4.896   5.268   4.335  1.4200 -2.8137 -0.1569
   32PEO   O2A822442  -5.094   5.331   4.275  0.0143  0.1209 -0.2436
   32PEO   H2A922443  -4.975   5.496   4.253  1.2100 -0.1311  1.3066
   32PEO   H2AA22444  -5.069   5.510   4.395  2.5480  2.1492 -0.9427
   32PEO   C2AB22445  -5.074   5.468   4.294  0.3615  0.4803 -0.2288
   32PEO   C2AC22446  -5.186   5.546   4.222 -0.2978  0.1889  0.5324
   32PEO   H2AD22447  -5.140   5.644   4.205  0.2495 -0.1205  0.1983
   32PEO   H2AE22448  -5.207   5.491   4.129 -0.0611 -1.3413  1.3361
   32PEO   O2AF22449  -5.299   5.566   4.310  0.5058  0.1518 -1.0146
   32PEO   H2B022450  -5.343   5.358   4.325 -1.8540 -0.8498 -2.0048
   32PEO   H2B122451  -5.437   5.452   4.213  0.7799  1.6696 -1.1522
   32PEO   C2B222452  -5.393   5.455   4.314 -0.9618 -0.1441 -0.2561
   32PEO   C2B322453  -5.496   5.458   4.421  0.0111 -0.2331 -0.0728
   32PEO   H2B422454  -5.526   5.353   4.429  0.7230 -0.5259 -1.1234
   32PEO   H2B522455  -5.441   5.484   4.512  0.4815  0.8170 -0.6414
   32PEO   O2B622456  -5.609   5.547   4.401 -0.3402 -0.3255  0.7850
   32PEO   H2B722457  -5.749   5.417   4.453  0.5084 -0.5486  1.0465
   32PEO   H2B822458  -5.813   5.582   4.439 -0.1345 -0.7057  1.5595
   32PEO   C2B922459  -5.725   5.523   4.469  0.6711 -0.3959 -0.1077
   32PEO   C2BA22460  -5.712   5.545   4.620 -0.0318  0.5742 -0.5680
   32PEO   H2BB22461  -5.689   5.650   4.643 -0.4950  0.4803  0.3756
   32PEO   H2BC22462  -5.808   5.528   4.670  0.0140 -0.3527 -0.7781
   32PEO   O2BD22463  -5.619   5.453   4.680  0.2987 -0.3982  0.3249
   32PEO   H2BE22464  -5.582   5.498   4.757 -2.1089  3.0105 -0.2438
   33PEO   H00122465   3.166   1.973   5.850 -0.9971  0.3485 -1.5465
   33PEO   H00222466   2.991   1.992   5.818  0.7033  0.4912 -0.0991
   33PEO   H00322467   3.064   2.099   5.938 -1.7722  1.4302 -1.4735
   33PEO   C00422468   3.069   1.998   5.896  0.0187  0.5825  0.6028
   33PEO   C00522469   3.045   1.902   6.005 -0.9368  0.7625 -0.7969
   33PEO   H00622470   3.115   1.911   6.089  1.0897  0.5055 -2.3952
   33PEO   H00722471   2.948   1.928   6.052 -0.9889 -0.7300 -0.0333
   33PEO   O00822472   3.045   1.770   5.952  0.5172 -0.0132  1.2663
   33PEO   H00922473   2.925   1.805   5.800  0.7952  2.9202  2.8552
   33PEO   H00A22474   2.840   1.723   5.939  0.8046  1.9844  1.9676
   33PEO   C00B22475   2.932   1.728   5.878 -0.1537 -0.0367  0.2341
   33PEO   C00C22476   2.966   1.596   5.794 -0.3699  0.1352  0.5566
   33PEO   H00D22477   2.897   1.577   5.710  1.6704 -0.7034 -1.0276
   33PEO   H00E22478   3.067   1.613   5.753  0.4904  4.8928  3.8523
   33PEO   O00F22479   2.960   1.479   5.880  0.2739 -0.2418 -0.2587
   33PEO   H01022480   2.769   1.413   5.808 -1.6276 -2.7435  1.5009
   33PEO   H01122481   2.756   1.509   5.953 -0.2419 -1.4011  1.6941
   33PEO   C01222482   2.819   1.434   5.903  0.1477 -0.0954  0.1083
   33PEO   C01322483   2.806   1.310   5.990 -0.0229  0.4417 -0.4340
   33PEO   H01422484   2.715   1.258   5.958 -1.3618  1.4977  1.4689
   33PEO   H01522485   2.899   1.251   5.989  3.1630  4.8997 -1.2351
   33PEO   O01622486   2.790   1.358   6.123  0.5049 -0.1662 -0.5815
   33PEO   H01722487   2.810   1.167   6.222  1.2029  1.3565  1.1477
   33PEO   H01822488   2.650   1.208   6.182  0.3888 -1.4422  0.6277
   33PEO   C01922489   2.744   1.254   6.216 -0.2041  0.2674  0.0283
   33PEO   C01A22490   2.729   1.304   6.365 -0.0244  0.0946 -0.6267
   33PEO   H01B22491   2.734   1.227   6.444  2.7565  2.1563  1.4314
   33PEO   H01C22492   2.814   1.371   6.389  0.1665 -0.3507 -0.0313
   33PEO   O01D22493   2.600   1.371   6.382  0.2121 -0.2107  0.0893
   33PEO   H01E22494   2.649   1.489   6.555 -1.5601  0.6954  2.5198
   33PEO   H01F22495   2.546   1.350   6.587  2.1039 -0.5532  0.1038
   33PEO   C02022496   2.568   1.428   6.513 -0.1363  0.2609  0.2151
   33PEO   C02122497   2.439   1.517   6.498 -0.2470  0.0738  0.3215
   33PEO   H02222498   2.415   1.564   6.595  1.0548 -1.5324  1.4937
   33PEO   H02322499   2.456   1.588   6.416 -0.6518 -0.2729 -0.0703
   33PEO   O02422500   2.325   1.431   6.475  0.1081 -0.0543  0.0993
   33PEO   H02522501   2.190   1.566   6.402  1.0104  0.8076  0.2851
   33PEO   H02622502   2.187   1.551   6.579  0.2462  1.4178 -0.3463
   33PEO   C02722503   2.194   1.494   6.485  0.2337  0.5906  0.1475
   33PEO   C02822504   2.089   1.379   6.455 -0.4693 -0.6583  0.0312
   33PEO   H02922505   1.998   1.437   6.431  0.8663  1.6621  0.2378
   33PEO   H02A22506   2.134   1.321   6.373 -3.7273 -1.9334 -1.0203
   33PEO   O02B22507   2.094   1.297   6.575  0.0067  0.0010  0.3863
   33PEO   H02C22508   2.056   1.115   6.501  1.7370 -0.0074  0.3794
   33PEO   H02D22509   1.918   1.228   6.532  1.6995  3.0656  0.7309
   33PEO   C02E22510   2.010   1.185   6.574  0.6590 -0.2095 -0.0808
   33PEO   C02F22511   1.984   1.128   6.708 -0.4631 -0.0272 -0.9084
   33PEO   H03022512   1.975   1.194   6.795 -0.0695 -0.8323 -0.2377
   33PEO   H03122513   1.883   1.084   6.700 -0.0527 -1.4076  0.9036
   33PEO   O03222514   2.078   1.022   6.731  0.5396  0.0960 -0.3534
   33PEO   H03322515   1.943   0.911   6.866  0.1828 -0.3117 -0.8803
   33PEO   H03422516   2.071   0.999   6.938  1.4659  0.9394 -0.7442
   33PEO   C03522517   2.049   0.937   6.851  0.3553 -0.2464  0.3358
   33PEO   C03622518   2.141   0.811   6.864  0.1992 -0.2436  0.4301
   33PEO   H03722519   2.110   0.753   6.953 -1.4519 -2.3633 -1.4223
   33PEO   H03822520   2.118   0.738   6.786  1.5547 -0.5678  0.3238
   33PEO   O03922521   2.277   0.863   6.866  0.4296  0.6012  0.3775
   33PEO   H03A22522   2.397   0.723   6.768  0.4761 -1.5876 -0.1034
   33PEO   H03B22523   2.361   0.689   6.940 -0.9743  1.2221 -0.6624
   33PEO   C03C22524   2.383   0.769   6.867  0.6353  0.5018 -0.9988
   33PEO   C03D22525   2.514   0.842   6.904  0.4004 -0.8144  0.2156
   33PEO   H03E22526   2.483   0.907   6.987  0.0246  1.5476 -1.6653
   33PEO   H03F22527   2.591   0.771   6.935  1.0990  0.2578  0.9909
   33PEO   O04022528   2.563   0.922   6.789 -0.4414  0.5741 -0.2677
   33PEO   H04122529   2.706   1.044   6.719  0.8471 -0.1131  0.9081
   33PEO   H04222530   2.750   0.950   6.871  1.0944 -3.6261 -3.9082
   33PEO   C04322531   2.674   1.012   6.820  0.1039 -0.7480  0.4835
   33PEO   C04422532   2.625   1.142   6.894  0.1076 -0.1913  0.1404
   33PEO   H04522533   2.578   1.102   6.985  1.1931 -2.0850 -0.0800
   33PEO   H04622534   2.707   1.213   6.912  1.7825 -0.7053 -4.1572
   33PEO   O04722535   2.531   1.212   6.814 -0.1402  0.4409  0.3688
   33PEO   H04822536   2.409   1.180   6.979  2.1962 -2.2333  0.3544
   33PEO   H04922537   2.372   1.081   6.842  1.7743 -1.7189  1.1186
   33PEO   C04A22538   2.401   1.183   6.870  0.0193 -1.0217  0.4917
   33PEO   C04B22539   2.297   1.285   6.812  0.1056  0.6676  0.3701
   33PEO   H04C22540   2.327   1.324   6.713  0.4864 -0.2886  0.0983
   33PEO   H04D22541   2.200   1.234   6.808  0.7371 -0.5410 -2.1606
   33PEO   O04E22542   2.296   1.388   6.912 -0.1287  0.4247 -0.4043
   33PEO   H04F22543   2.132   1.458   6.811 -1.0426  1.1792  1.0861
   33PEO   H05022544   2.282   1.564   6.805  0.0627  0.7952  0.1159
   33PEO   C05122545   2.217   1.499   6.866  0.3382  0.1895 -0.2287
   33PEO   C05222546   2.176   1.589   6.990  0.1979  0.2536 -0.4201
   33PEO   H05322547   2.251   1.588   7.070  2.0836  1.1586 -2.1113
   33PEO   H05422548   2.174   1.696   6.965  2.3501  0.6383  0.7850
   33PEO   O05522549   2.044   1.546   7.019  0.3905  0.2955  0.3464
   33PEO   H05622550   2.099   1.460   7.205  0.0579 -1.4460  0.5062
   33PEO   H05722551   2.084   1.351   7.059 -1.7042  0.0253 -1.9206
   33PEO   C05822552   2.044   1.437   7.113  0.4637  0.0103 -0.1246
   33PEO   C05922553   1.901   1.385   7.149  0.4335 -0.1244  0.2415
   33PEO   H05A22554   1.905   1.343   7.251 -1.7589 -0.0121  0.4313
   33PEO   H05B22555   1.838   1.476   7.149 -2.4319 -1.9251 -2.0036
   33PEO   O05C22556   1.852   1.295   7.057 -0.0610  0.1156 -0.5768
   33PEO   H05D22557   1.658   1.316   7.138 -0.9793 -0.6684 -2.2457
   33PEO   H05E22558   1.746   1.156   7.168  0.9717 -1.5237 -1.1229
   33PEO   C05F22559   1.724   1.237   7.097  0.9267 -0.4024  0.1374
   33PEO   C06022560   1.664   1.173   6.969 -0.1078  0.3630  0.4058
   33PEO   H06122561   1.554   1.173   6.975 -0.1029 -1.3417  1.0344
   33PEO   H06222562   1.693   1.224   6.876 -0.6858 -2.3958 -1.3857
   33PEO   O06322563   1.709   1.037   6.978 -0.2993  0.2279 -0.4457
   33PEO   H06422564   1.552   0.904   6.974 -1.0262  0.6260 -0.8824
   33PEO   H06522565   1.695   0.829   6.912  2.5605  1.5514 -0.7533
   33PEO   C06622566   1.642   0.926   6.915 -0.3732  0.0626 -0.1110
   33PEO   C06722567   1.614   0.963   6.769  0.3300 -0.5128  1.4402
   33PEO   H06822568   1.705   1.006   6.725 -0.0028  0.0617  1.3161
   33PEO   H06922569   1.571   0.875   6.719 -2.1327  1.7562 -0.6825
   33PEO   O06A22570   1.517   1.069   6.754  0.3241  0.1016 -0.0374
   33PEO   H06B22571   1.575   1.085   6.543  1.0809  2.2350 -0.4256
   33PEO   H06C22572   1.466   1.210   6.612 -4.3347 -0.9698 -0.6464
   33PEO   C06D22573   1.495   1.104   6.617 -0.0574  0.0166 -1.0012
   33PEO   C06E22574   1.365   1.029   6.582  1.3427  0.4825 -0.6417
   33PEO   H06F22575   1.299   1.030   6.671 -0.4770  0.3811 -1.9277
   33PEO   H07022576   1.308   1.096   6.516  0.1833  1.1895  0.9885
   33PEO   O07122577   1.385   0.893   6.535 -0.5351  0.8800  0.3065
   33PEO   H07222578   1.197   0.878   6.451  0.4540  2.3432  2.4271
   33PEO   H07322579   1.223   0.783   6.603  3.7193 -0.4834  1.6287
   33PEO   C07422580   1.266   0.812   6.506  0.4872  0.5850  0.3857
   33PEO   C07522581   1.308   0.692   6.418 -0.1352  0.4535  0.5043
   33PEO   H07622582   1.409   0.661   6.448 -0.2463 -0.9437 -0.4462
   33PEO   H07722583   1.247   0.606   6.449  2.7045 -2.1820 -0.6496
   33PEO   O07822584   1.302   0.718   6.274 -0.0154  0.3142 -0.4749
   33PEO   H07922585   1.282   0.520   6.223  0.5611 -1.2548 -0.0598
   33PEO   H07A22586   1.449   0.587   6.226 -0.4996 -0.6291 -0.1198
   33PEO   C07B22587   1.344   0.607   6.199 -0.4014 -0.6715 -0.5340
   33PEO   C07C22588   1.350   0.647   6.051  0.1726  0.1925  0.1565
   33PEO   H07D22589   1.373   0.553   6.001 -1.4913  0.4698 -1.2456
   33PEO   H07E22590   1.246   0.679   6.032 -0.1115 -0.2847  0.8453
   33PEO   O07F22591   1.445   0.742   6.021 -0.2278 -0.2574  0.2365
   33PEO   H08022592   1.384   0.789   5.821 -1.0547 -0.6307  0.7801
   33PEO   H08122593   1.517   0.676   5.844 -0.8348 -1.4863  1.0178
   33PEO   C08222594   1.469   0.766   5.887 -0.2299 -0.5374 -0.2361
   33PEO   C08322595   1.580   0.872   5.869  0.0420 -0.1105  0.0914
   33PEO   H08422596   1.655   0.840   5.942 -1.8285 -0.2982  2.0257
   33PEO   H08522597   1.618   0.862   5.766 -1.2586  0.4139 -0.4628
   33PEO   O08622598   1.513   1.005   5.890 -0.4689 -0.0294 -0.0703
   33PEO   H08722599   1.651   1.103   5.761 -1.4712 -0.8238 -1.5048
   33PEO   H08822600   1.664   1.151   5.932 -1.2388  0.0838  0.1423
   33PEO   C08922601   1.595   1.113   5.855 -0.0716 -0.4845 -0.6682
   33PEO   C08A22602   1.495   1.227   5.835 -0.0526  0.3174  0.0518
   33PEO   H08B22603   1.427   1.233   5.921  1.8098  0.8032  1.5520
   33PEO   H08C22604   1.545   1.325   5.841  1.1379 -0.2969  0.3258
   33PEO   O08D22605   1.436   1.219   5.704 -0.9121  0.2753  0.8679
   33PEO   H08E22606   1.420   1.431   5.698  1.3450 -0.4256 -0.3498
   33PEO   H08F22607   1.279   1.333   5.736  0.6509 -1.4260  0.7381
   33PEO   C09022608   1.369   1.337   5.672  0.0541  0.1669 -0.0527
   33PEO   C09122609   1.315   1.343   5.524  1.1429 -0.0357 -0.3879
   33PEO   H09222610   1.264   1.248   5.506 -1.5320  1.5334 -1.5614
   33PEO   H09322611   1.246   1.428   5.515  0.9350 -0.2109 -0.4487
   33PEO   O09422612   1.432   1.358   5.448  0.1415  0.5314  0.3821
   33PEO   H09522613   1.394   1.510   5.315  0.2226 -0.6696 -1.5005
   33PEO   H09622614   1.317   1.341   5.283  0.3112 -1.2174  1.5302
   33PEO   C09722615   1.404   1.400   5.317  0.5172 -0.6450  0.0690
   33PEO   C09822616   1.523   1.377   5.220 -0.1962 -0.2275  0.5765
   33PEO   H09922617   1.579   1.283   5.232 -0.9985 -0.8246 -0.1603
   33PEO   H09A22618   1.482   1.380   5.118 -2.4937 -2.0332  1.3589
   33PEO   O09B22619   1.614   1.488   5.240  0.4148 -0.6826 -0.5425
   33PEO   H09C22620   1.792   1.415   5.329 -0.5197 -1.6712  1.0180
   33PEO   H09D22621   1.653   1.441   5.437 -0.0430  0.3477  0.5411
   33PEO   C09E22622   1.708   1.482   5.351  0.9699  0.2346  1.1147
   33PEO   C09F22623   1.753   1.622   5.382 -0.5762  0.2375  0.1673
   33PEO   H0A022624   1.834   1.607   5.456 -0.2834  0.6548 -0.0632
   33PEO   H0A122625   1.799   1.667   5.294 -0.3961  0.4804  0.3829
   33PEO   O0A222626   1.644   1.692   5.433 -0.1652 -0.3295  0.2471
   33PEO   H0A322627   1.653   1.813   5.263 -1.5680 -0.1302 -0.5327
   33PEO   H0A422628   1.702   1.892   5.416 -1.5267  1.6205 -0.5391
   33PEO   C0A522629   1.632   1.821   5.370  0.0133 -0.1862 -0.1929
   33PEO   C0A622630   1.492   1.870   5.355  0.2056 -0.4367  0.3773
   33PEO   H0A722631   1.489   1.937   5.269  0.5771  0.4978  1.0740
   33PEO   H0A822632   1.417   1.793   5.331 -1.4883  1.7349 -1.8232
   33PEO   O0A922633   1.442   1.940   5.469 -0.3047 -0.3728  0.9843
   33PEO   H0AA22634   1.269   1.954   5.593 -3.1406 -3.1303 -0.9250
   33PEO   H0AB22635   1.260   1.842   5.456 -1.1808 -0.1721 -1.1184
   33PEO   C0AC22636   1.296   1.941   5.487 -0.2218 -0.6637 -0.6245
   33PEO   C0AD22637   1.210   2.038   5.404  0.3458  0.3853  0.4895
   33PEO   H0AE22638   1.112   2.051   5.451  0.9806  1.4570  1.5914
   33PEO   H0AF22639   1.262   2.135   5.405  0.6704  0.2320 -0.3374
   33PEO   O0B022640   1.203   1.984   5.273 -0.1630  0.4560  0.4040
   33PEO   H0B122641   1.335   2.108   5.154 -0.2873  1.9333  0.7368
   33PEO   H0B222642   1.185   2.176   5.192 -1.1913 -1.5067  1.4931
   33PEO   C0B322643   1.229   2.079   5.162  0.1883 -0.3888 -0.3130
   33PEO   C0B422644   1.170   2.020   5.027  0.3814 -0.1405  0.7960
   33PEO   H0B522645   1.193   2.075   4.935  1.0362 -1.8918 -0.1074
   33PEO   H0B622646   1.222   1.927   5.004  0.5217  0.3975 -1.2246
   33PEO   O0B722647   1.031   1.984   5.033  1.2910 -0.6430 -0.5538
   33PEO   H0B822648   0.994   2.144   5.177  0.2124  1.4892 -0.4151
   33PEO   H0B922649   0.856   2.061   5.108  0.2764 -0.0251  1.4279
   33PEO   C0BA22650   0.957   2.099   5.084  0.0971 -0.1650  0.3939
   33PEO   C0BB22651   0.925   2.207   4.983 -0.0343  0.4933  0.7690
   33PEO   H0BC22652   0.848   2.184   4.907  2.0124  0.8193 -1.5237
   33PEO   H0BD22653   0.889   2.296   5.037  1.2563  1.3632  0.2325
   33PEO   O0BE22654   1.043   2.239   4.911  0.3105  0.1009  0.8992
   33PEO   H0BF22655   0.977   2.431   4.862 -0.4182  0.3423 -1.2719
   33PEO   H0C022656   0.960   2.308   4.737  2.7025  0.3714 -2.8491
   33PEO   C0C122657   1.027   2.345   4.815  0.1309  0.1490 -0.3542
   33PEO   C0C222658   1.160   2.399   4.758  0.4681  0.1236  0.1376
   33PEO   H0C322659   1.195   2.332   4.679  1.6534  0.2540  0.5398
   33PEO   H0C422660   1.141   2.485   4.691 -1.3897 -0.1319  0.2871
   33PEO   O0C522661   1.248   2.439   4.857  0.0709 -0.1801  0.0398
   33PEO   H0C622662   1.152   2.446   5.038  1.3566 -0.3986  1.0983
   33PEO   H0C722663   1.127   2.596   4.944  0.6271  1.8756 -1.4042
   33PEO   C0C822664   1.201   2.521   4.975 -1.1428  0.7164  0.3412
   33PEO   C0C922665   1.323   2.579   5.054  0.0611 -0.3947  0.1065
   33PEO   H0CA22666   1.392   2.633   4.987 -0.2839 -0.2197 -0.1080
   33PEO   H0CB22667   1.272   2.642   5.129 -2.2059 -2.1767  0.1687
   33PEO   O0CC22668   1.382   2.473   5.133  0.3742  0.3569 -0.0193
   33PEO   H0CD22669   1.492   2.587   5.277  0.6076 -0.5547 -0.0832
   33PEO   H0CE22670   1.581   2.548   5.124  1.1272 -1.9156  0.1609
   33PEO   C0CF22671   1.512   2.510   5.200  0.2720 -0.7342  0.0084
   33PEO   C0D022672   1.563   2.381   5.267 -0.4307 -0.0259  0.1479
   33PEO   H0D122673   1.556   2.298   5.195 -0.6191  2.5289 -3.0562
   33PEO   H0D222674   1.664   2.395   5.308  1.1326  1.4817 -3.6888
   33PEO   O0D322675   1.487   2.350   5.379  0.0608 -0.9034 -0.4553
   33PEO   H0D422676   1.638   2.289   5.529  0.8249 -2.3860  0.1228
   33PEO   H0D522677   1.585   2.184   5.404  1.3970  1.2328 -0.7136
   33PEO   C0D622678   1.548   2.262   5.472  0.1273  0.1198 -0.0785
   33PEO   C0D722679   1.462   2.229   5.591 -0.2075 -0.3484  0.3698
   33PEO   H0D822680   1.359   2.207   5.558 -1.3038  0.4985  2.9620
   33PEO   H0D922681   1.482   2.135   5.646 -0.8637 -0.3826  0.5670
   33PEO   O0DA22682   1.461   2.341   5.676 -0.8203  0.0581  0.2911
   33PEO   H0DB22683   1.395   2.244   5.854  0.6338  0.1854  0.3206
   33PEO   H0DC22684   1.268   2.327   5.753 -1.9818 -0.3752  2.2156
   33PEO   C0DD22685   1.371   2.332   5.792 -0.6375 -1.0090 -0.9634
   33PEO   C0DE22686   1.394   2.461   5.878  0.8260  0.7100 -0.1512
   33PEO   H0DF22687   1.399   2.549   5.813  0.4135 -1.2791 -3.0708
   33PEO   H0E022688   1.300   2.470   5.934 -0.1335  0.3754 -1.6401
   33PEO   O0E122689   1.502   2.445   5.971  0.0462  0.9331 -0.3309
   33PEO   H0E222690   1.421   2.551   6.131  0.8448 -0.6597  1.3656
   33PEO   H0E322691   1.538   2.641   6.021  0.6933 -0.6701 -0.4119
   33PEO   C0E422692   1.511   2.546   6.068 -0.0410 -0.2580  0.0306
   33PEO   C0E522693   1.623   2.508   6.169 -0.3948 -0.1295 -0.1187
   33PEO   H0E622694   1.637   2.585   6.247  1.0271 -0.2839 -0.1831
   33PEO   H0E722695   1.594   2.417   6.222 -0.4337  0.6204  1.1831
   33PEO   O0E822696   1.740   2.503   6.101  0.2568  0.3213 -0.7331
   33PEO   H0E922697   1.847   2.486   6.289 -2.3181 -0.8094 -0.0620
   33PEO   H0EA22698   1.882   2.636   6.212  1.8255 -1.2896  2.4721
   33PEO   C0EB22699   1.857   2.531   6.189  0.0521 -0.4748  0.2767
   33PEO   C0EC22700   1.981   2.467   6.117  0.0566 -0.5111  0.1034
   33PEO   H0ED22701   1.993   2.526   6.025 -0.6783 -1.3078 -0.5202
   33PEO   H0EE22702   2.066   2.480   6.185  3.7621 -0.0635 -4.1313
   33PEO   O0EF22703   1.954   2.331   6.094 -0.7229 -0.1572  0.1265
   33PEO   H0F022704   2.036   2.138   6.068  1.5221 -0.3066 -3.7646
   33PEO   H0F122705   2.129   2.238   6.178  1.6800  1.6249 -0.7826
   33PEO   C0F222706   2.070   2.241   6.085  0.0811 -0.3324  0.0897
   33PEO   C0F322707   2.162   2.284   5.964  0.1225 -0.1764 -0.4230
   33PEO   H0F422708   2.227   2.199   5.937  0.2319  0.2577 -1.6237
   33PEO   H0F522709   2.093   2.302   5.880 -1.6379 -1.2353  0.7271
   33PEO   O0F622710   2.234   2.403   6.001  0.2624 -0.7370 -0.4128
   33PEO   H0F722711   2.200   2.474   5.806 -1.7506  2.9845  1.8907
   33PEO   H0F822712   2.369   2.417   5.839 -1.0635 -0.7524  0.5046
   33PEO   C0F922713   2.281   2.470   5.879 -0.5436  0.0967  0.5482
   33PEO   C0FA22714   2.310   2.628   5.900 -0.5849  0.2530  0.0601
   33PEO   H0FB22715   2.325   2.671   5.801  0.0985  0.8405  0.4123
   33PEO   H0FC22716   2.218   2.669   5.946 -0.8192 -0.4427  0.2311
   33PEO   O0FD22717   2.420   2.642   5.985 -0.3812  0.1864  0.3634
   33PEO   H0FE22718   2.565   2.787   6.047 -1.2635  1.3673 -0.1477
   33PEO   H0FF22719   2.428   2.844   5.953  0.8770  1.3521 -2.0742
   33PEO   C10022720   2.500   2.762   5.963 -0.7448  0.0707 -0.1848
   33PEO   C10122721   2.589   2.754   5.830 -0.1670 -0.4785  0.4124
   33PEO   H10222722   2.528   2.732   5.741  0.2049 -2.5354  0.5976
   33PEO   H10322723   2.639   2.850   5.815 -1.5268  0.2623  0.5138
   33PEO   O10422724   2.693   2.655   5.850 -0.8156  0.5584 -0.2808
   33PEO   H10522725   2.558   2.509   5.808 -0.2192  1.0567  1.3097
   33PEO   H10622726   2.718   2.440   5.860  0.9720  2.0117  1.1915
   33PEO   C10722727   2.667   2.517   5.799 -0.2455  0.0852 -0.3535
   33PEO   C10822728   2.710   2.503   5.653  1.0054 -0.2887 -0.1669
   33PEO   H10922729   2.698   2.395   5.634 -2.9512  0.4665 -3.4069
   33PEO   H10A22730   2.637   2.552   5.588  0.1139 -0.6611  0.5368
   33PEO   O10B22731   2.843   2.561   5.625  0.4048 -0.3345 -0.6521
   33PEO   H10C22732   2.802   2.770   5.646 -0.5411 -0.8343  0.5184
   33PEO   H10D22733   2.770   2.705   5.483 -0.0152  0.2323 -0.3358
   33PEO   C10E22734   2.837   2.700   5.569 -0.1310  0.1845 -0.2483
   33PEO   C10F22735   2.984   2.739   5.530  0.4078  0.3292 -0.8690
   33PEO   H11022736   3.025   2.684   5.444 -0.2738 -0.6504 -0.5856
   33PEO   H11122737   2.984   2.843   5.494  1.0196  0.4580 -0.5014
   33PEO   O11222738   3.078   2.715   5.634 -0.2474 -0.2388  0.1756
   33PEO   H11322739   2.970   2.775   5.803  0.8352 -1.2515  0.4568
   33PEO   H11422740   3.047   2.904   5.713 -0.0327 -0.0127 -0.0709
   33PEO   C11522741   3.061   2.800   5.747  0.0376 -0.1043 -0.3739
   33PEO   C11622742   3.194   2.784   5.833  0.5583 -0.8572 -0.2849
   33PEO   H11722743   3.177   2.829   5.932  2.2383  0.8635 -0.7274
   33PEO   H11822744   3.198   2.678   5.861 -0.6500 -0.8190  0.1270
   33PEO   O11922745   3.321   2.818   5.774 -0.7541  0.0312  0.5244
   33PEO   H11A22746   3.302   2.702   5.617 -2.2174  2.8895  2.2773
   33PEO   H11B22747   3.413   2.627   5.739  1.5348 -0.5841 -0.6980
   33PEO   C11C22748   3.381   2.721   5.692  0.8268 -0.3627  0.2010
   33PEO   C11D22749   3.504   2.789   5.616  0.5879 -0.2336  0.0004
   33PEO   H11E22750   3.556   2.726   5.542  0.9973 -1.5090  1.3114
   33PEO   H11F22751   3.462   2.873   5.559  1.3595  1.4014  1.7226
   33PEO   O12022752   3.602   2.825   5.720 -0.1040  0.5084  0.6363
   33PEO   H12122753   3.763   2.819   5.587 -1.4778  0.6797 -1.2183
   33PEO   H12222754   3.791   2.879   5.749  0.8877 -1.2347 -1.0973
   33PEO   C12322755   3.719   2.882   5.666 -0.2422  0.1908 -0.1063
   33PEO   C12422756   3.693   3.035   5.617 -0.0330  0.3036 -0.1137
   33PEO   H12522757   3.769   3.053   5.540  0.7359  1.3623  0.8537
   33PEO   H12622758   3.595   3.052   5.570 -0.5924 -0.0325  0.8949
   33PEO   O12722759   3.711   3.128   5.723  0.1899 -0.0209  0.0995
   33PEO   H12822760   3.619   3.029   5.876 -0.1263  1.1058  2.3497
   33PEO   H12922761   3.500   3.107   5.769  0.6403  0.7629 -2.0351
   33PEO   C12A22762   3.599   3.119   5.816 -0.0101 -0.4901 -0.2498
   33PEO   C12B22763   3.585   3.243   5.911  0.7020  0.4014 -0.5978
   33PEO   H12C22764   3.604   3.332   5.849 -1.0993  0.6042 -0.9197
   33PEO   H12D22765   3.481   3.243   5.948  1.0214 -1.1727  0.3732
   33PEO   O12E22766   3.685   3.227   6.023 -0.2252  0.2325  0.7732
   33PEO   H12F22767   3.785   3.405   6.014  0.3094  0.4746  0.1431
   33PEO   H13022768   3.848   3.282   5.904 -0.4138 -0.3409 -0.9640
   33PEO   C13122769   3.807   3.297   6.006  1.0246  0.6678 -0.5162
   33PEO   C13222770   3.911   3.268   6.114  0.5909  0.0612  0.3409
   33PEO   H13322771   3.949   3.367   6.144  1.4119 -0.6020  1.5956
   33PEO   H13422772   3.871   3.215   6.201  3.5116 -0.9374  1.2027
   33PEO   O13522773   4.020   3.183   6.065 -0.2492  0.1499 -0.1320
   33PEO   H13622774   3.897   3.066   5.943  0.0675  2.0935 -0.0837
   33PEO   H13722775   3.962   2.976   6.075 -0.5507 -1.7987 -2.2453
   33PEO   C13822776   3.989   3.052   6.001  0.0716 -0.3026 -0.5462
   33PEO   C13922777   4.106   3.002   5.913  0.5407  0.2555  0.0946
   33PEO   H13A22778   4.197   3.022   5.971  1.8866 -1.2935 -1.3765
   33PEO   H13B22779   4.101   2.898   5.877 -1.3986  0.9490 -1.8532
   33PEO   O13C22780   4.122   3.084   5.798 -0.2947  0.1844  0.4596
   33PEO   H13D22781   3.927   3.123   5.741  0.0952 -0.6659  0.4196
   33PEO   H13E22782   3.999   2.974   5.666 -2.3529  0.3429 -0.2395
   33PEO   C13F22783   4.016   3.079   5.693  0.0972 -0.0220 -0.1787
   33PEO   C14022784   4.062   3.164   5.576  0.1874 -0.4322  0.4676
   33PEO   H14122785   4.169   3.144   5.562  0.3985 -0.7580  2.3385
   33PEO   H14222786   4.002   3.126   5.492  1.9821 -1.0428 -0.5877
   33PEO   O14322787   4.038   3.307   5.600 -0.7883 -0.0172 -0.3584
   33PEO   H14422788   4.048   3.389   5.399  3.7527  2.7557 -2.0142
   33PEO   H14522789   4.195   3.413   5.508  0.6693  0.5808 -2.1997
   33PEO   C14622790   4.085   3.406   5.501  0.5302  0.1751 -0.2133
   33PEO   C14722791   4.049   3.550   5.537  0.1591 -0.1173 -0.7801
   33PEO   H14822792   4.081   3.563   5.641  0.3161  1.2022 -0.9827
   33PEO   H14922793   4.093   3.625   5.470 -0.9792 -0.1173 -1.5674
   33PEO   O14A22794   3.904   3.581   5.532  0.5146 -0.2719  0.0753
   33PEO   H14B22795   3.872   3.489   5.717  2.1374  0.6651 -0.7887
   33PEO   H14C22796   3.803   3.395   5.575 -0.3918 -0.1390  0.2877
   33PEO   C14D22797   3.824   3.494   5.618  0.1827 -0.1547  0.0439
   33PEO   C14E22798   3.690   3.564   5.644  0.6224  0.0969 -0.0091
   33PEO   H14F22799   3.655   3.614   5.552 -2.2328  0.8631  1.4036
   33PEO   H15022800   3.619   3.486   5.673  3.4937 -2.7672 -0.1423
   33PEO   O15122801   3.714   3.662   5.757 -0.3544 -0.1377 -0.2180
   33PEO   H15222802   3.527   3.751   5.709 -0.2540  0.3397  0.1400
   33PEO   H15322803   3.618   3.817   5.847 -1.9046 -0.5300  2.9475
   33PEO   C15422804   3.594   3.724   5.793  0.2412  0.5824 -0.1718
   33PEO   C15522805   3.513   3.634   5.892  0.4486  0.8977 -0.5325
   33PEO   H15622806   3.427   3.695   5.923  0.6223  1.1980 -0.6317
   33PEO   H15722807   3.470   3.543   5.847  0.7804  0.7838 -0.6227
   33PEO   O15822808   3.583   3.609   6.007  0.2503 -0.4607 -0.4666
   33PEO   H15922809   3.462   3.458   6.088 -2.8633  1.0494  0.1208
   33PEO   H15A22810   3.425   3.623   6.149 -0.5302 -0.8375  0.3712
   33PEO   C15B22811   3.506   3.554   6.119 -0.0262 -0.1202  0.0375
   33PEO   C15C22812   3.602   3.532   6.237 -0.8320  0.8740 -0.0551
   33PEO   H15D22813   3.534   3.516   6.322  0.4246  2.2720  1.2713
   33PEO   H15E22814   3.660   3.441   6.217 -4.0699 -0.9676 -1.8717
   33PEO   O15F22815   3.692   3.649   6.246  0.0562 -0.0750  0.7356
   33PEO   H16022816   3.814   3.528   6.369 -2.6378 -0.3460  5.2509
   33PEO   H16122817   3.757   3.678   6.436 -2.9730 -0.2188 -0.8649
   33PEO   C16222818   3.794   3.633   6.343  0.5990 -0.6173  0.5745
   33PEO   C16322819   3.918   3.708   6.289 -0.8392 -0.1354 -0.2484
   33PEO   H16422820   3.902   3.815   6.271  0.1218  0.2158  0.9294
   33PEO   H16522821   3.985   3.709   6.376 -0.7712  0.6123 -0.3019
   33PEO   O16622822   3.979   3.635   6.179 -0.0567 -0.5556  0.5700
   33PEO   H16722823   3.834   3.650   6.021 -0.5553 -0.6228  3.2566
   33PEO   H16822824   3.996   3.593   5.975 -0.4374 -0.0640 -2.1279
   33PEO   C16922825   3.941   3.664   6.039  0.1810 -1.5789  0.1758
   33PEO   C16A22826   3.982   3.813   6.013  0.2872  0.1870  0.1107
   33PEO   H16B22827   3.971   3.856   5.912 -0.3054  3.8981  1.5988
   33PEO   H16C22828   3.930   3.884   6.079 -2.4250  0.1680 -1.8157
   33PEO   O16D22829   4.117   3.818   6.052 -0.1613  0.0601 -0.0278
   33PEO   H16E22830   4.138   3.983   6.170  0.3127 -0.6370 -0.6151
   33PEO   H16F22831   4.176   4.025   6.009  0.3882  2.1556  1.5448
   33PEO   C17022832   4.187   3.943   6.080  0.4299 -0.0242 -0.8318
   33PEO   C17122833   4.330   3.913   6.129  0.0208  0.0199  0.9925
   33PEO   H17222834   4.376   4.008   6.161 -1.5314  0.5509  1.7402
   33PEO   H17322835   4.330   3.844   6.214  0.0873 -1.5056 -0.1925
   33PEO   O17422836   4.408   3.873   6.010  0.2776  0.6123  0.2632
   33PEO   H17522837   4.400   4.071   5.927  0.3179  0.7052 -1.8739
   33PEO   H17622838   4.313   3.952   5.826 -0.9134  0.6106  0.2982
   33PEO   C17722839   4.398   3.965   5.895 -0.1882  0.2815 -0.5004
   33PEO   C17822840   4.531   3.960   5.820 -0.2017  0.5128  0.1000
   33PEO   H17922841   4.516   4.000   5.718  2.5775  0.4303 -0.4215
   33PEO   H17A22842   4.617   4.004   5.872  0.9285 -0.1208 -1.1548
   33PEO   O17B22843   4.565   3.826   5.787 -0.7305 -0.1767  0.0367
   33PEO   H17C22844   4.770   3.885   5.735  0.4763 -0.4145 -2.1658
   33PEO   H17D22845   4.662   3.888   5.598  0.8664 -0.6795 -1.0679
   33PEO   C17E22846   4.678   3.840   5.695 -0.5460  0.0537 -0.4492
   33PEO   C17F22847   4.722   3.694   5.654  0.4792  0.1775 -0.0695
   33PEO   H18022848   4.634   3.628   5.653  0.3129  0.4009 -0.3454
   33PEO   H18122849   4.770   3.706   5.555  0.1545  0.1757 -0.2304
   33PEO   O18222850   4.805   3.649   5.760 -0.3004  0.2561 -0.8334
   33PEO   H18322851   4.917   3.550   5.623 -0.5228  2.8751 -0.5592
   33PEO   H18422852   4.823   3.437   5.737  1.8418 -0.9961  1.5040
   33PEO   C18522853   4.877   3.531   5.723  0.7840 -0.6220 -0.5582
   33PEO   C18622854   4.993   3.516   5.827 -0.7894 -0.1543 -0.0984
   33PEO   H18722855   4.948   3.525   5.927  1.1456 -1.9813  1.0370
   33PEO   H18822856   5.054   3.424   5.828 -0.8006 -0.1665  1.2187
   33PEO   O18922857   5.085   3.626   5.826 -0.0311  0.2454  0.3133
   33PEO   H18A22858   5.122   3.614   5.628 -1.6157  1.2149  0.6714
   33PEO   H18B22859   5.237   3.513   5.717  0.0254  1.0318 -0.5711
   33PEO   C18C22860   5.183   3.609   5.719 -0.1049  0.9544 -0.3008
   33PEO   C18D22861   5.279   3.728   5.721  1.0480  0.0756 -0.3573
   33PEO   H18E22862   5.363   3.705   5.654  0.4438 -1.9185 -0.5007
   33PEO   H18F22863   5.234   3.824   5.691  2.1644  0.3927 -1.0628
   33PEO   O19022864   5.339   3.747   5.848 -0.0737  0.4288 -0.1142
   33PEO   H19122865   5.204   3.876   5.960  0.8559  0.9118 -0.3558
   33PEO   H19222866   5.297   3.939   5.822 -0.0202 -1.8738 -2.1440
   33PEO   C19322867   5.303   3.874   5.911  0.9150  0.6662 -0.2297
   33PEO   C19422868   5.410   3.917   6.015 -0.1969  0.1077 -0.3337
   33PEO   H19522869   5.504   3.918   5.958 -0.7182 -0.5562 -1.2460
   33PEO   H19622870   5.397   4.022   6.045  1.2401  0.0457  0.5647
   33PEO   O19722871   5.406   3.828   6.127  0.1084  0.0181  0.5966
   33PEO   H19822872   5.514   3.949   6.259 -1.5091  0.7124 -1.0966
   33PEO   H19922873   5.609   3.825   6.172  0.7145  2.7887  0.5195
   33PEO   C19A22874   5.512   3.847   6.219 -0.1740  0.2104  0.0447
   33PEO   C19B22875   5.501   3.749   6.339 -0.1773 -0.1379  0.4491
   33PEO   H19C22876   5.479   3.647   6.304  1.0148 -0.4891  0.6767
   33PEO   H19D22877   5.596   3.738   6.393 -0.6122 -2.0634  0.8911
   33PEO   O19E22878   5.401   3.812   6.423 -0.1806  0.4400  0.5433
   33PEO   H19F22879   5.378   3.882   6.622  1.1496  0.3165 -0.2585
   33PEO   H1A022880   5.540   3.821   6.586  0.3262 -0.4735 -0.8636
   33PEO   C1A122881   5.433   3.804   6.567  0.2031 -0.3321 -0.3127
   33PEO   C1A222882   5.377   3.672   6.629 -0.1215 -0.2995 -0.9839
   33PEO   H1A322883   5.388   3.681   6.738 -1.5601  0.7697 -0.8896
   33PEO   H1A422884   5.271   3.648   6.612 -0.6488  0.6997  0.6586
   33PEO   O1A522885   5.464   3.571   6.584  0.6446  0.4271 -0.4292
   33PEO   H1A622886   5.308   3.431   6.590 -0.0279  2.1328  4.0993
   33PEO   H1A722887   5.440   3.392   6.699 -1.4355 -1.8466  0.3533
   33PEO   C1A822888   5.418   3.427   6.597  0.3670 -1.0575  0.1975
   33PEO   C1A922889   5.476   3.349   6.472  0.6407 -0.5274 -0.0947
   33PEO   H1AA22890   5.452   3.243   6.487 -0.0260 -0.0821  2.4970
   33PEO   H1AB22891   5.435   3.393   6.380  0.4293  4.7298  2.1821
   33PEO   O1AC22892   5.623   3.366   6.472  0.5694 -0.3356  0.2030
   33PEO   H1AD22893   5.658   3.369   6.275  2.0456  1.8998  0.5662
   33PEO   H1AE22894   5.654   3.202   6.353  1.9706  0.4194 -3.0781
   33PEO   C1AF22895   5.680   3.308   6.364 -0.5154  0.8384  0.5641
   33PEO   C1B022896   5.834   3.316   6.386  0.8628 -0.6767  0.8980
   33PEO   H1B122897   5.839   3.302   6.495 -0.9130 -1.6180  0.8841
   33PEO   H1B222898   5.868   3.226   6.332 -0.0973  0.4004 -1.6310
   33PEO   O1B322899   5.896   3.435   6.341 -0.0740 -0.2331  0.1809
   33PEO   H1B422900   5.920   3.546   6.526 -0.1359  1.3672  0.9723
   33PEO   H1B522901   5.774   3.569   6.445  0.8835  2.3671  1.0966
   33PEO   C1B622902   5.881   3.554   6.424  0.5708  0.5523  0.6291
   33PEO   C1B722903   5.928   3.673   6.336  0.5574  0.0199 -0.6158
   33PEO   H1B822904   5.934   3.762   6.400  0.8871 -0.6979  0.3600
   33PEO   H1B922905   6.029   3.647   6.301  1.4731  1.4003  0.8983
   33PEO   O1BA22906   5.828   3.670   6.228 -0.7344  0.2137 -0.0855
   33PEO   H1BB22907   5.796   3.728   6.034  2.1738 -0.3695 -1.3234
   33PEO   H1BC22908   5.968   3.721   6.066  1.2712  3.1252  0.7248
   33PEO   C1BD22909   5.872   3.750   6.110  0.2515  0.4638  0.4557
   33PEO   C1BE22910   5.869   3.907   6.137  0.3392  0.0200  0.1257
   33PEO   H1BF22911   5.844   3.949   6.039 -1.3624  0.0368  0.5323
   33PEO   H1C022912   5.790   3.933   6.209 -0.8075 -1.7331 -0.4219
   33PEO   O1C122913   5.995   3.959   6.198 -0.1748  0.7233 -0.0106
   33PEO   H1C222914   5.956   4.141   6.112 -0.3247 -0.6340 -0.4955
   33PEO   H1C322915   6.100   4.141   6.223  0.3537 -0.2301 -0.5800
   33PEO   C1C422916   6.000   4.100   6.203 -0.0736  0.5316 -0.0697
   33PEO   C1C522917   5.903   4.145   6.315  1.2055  0.4230  0.0348
   33PEO   H1C622918   5.925   4.250   6.342 -1.0613  1.2541 -1.1467
   33PEO   H1C722919   5.801   4.151   6.276  0.8336 -1.2885  0.6567
   33PEO   O1C822920   5.908   4.055   6.430 -0.1504  0.8076 -0.9657
   33PEO   H1C922921   5.850   4.211   6.555  2.2672 -0.1282  0.2128
   33PEO   H1CA22922   5.883   4.054   6.634  2.0365  0.0062  0.0782
   33PEO   C1CB22923   5.834   4.102   6.548  0.3407  0.0515  1.0227
   33PEO   C1CC22924   5.689   4.059   6.545  0.2615  0.0907  0.0247
   33PEO   H1CD22925   5.684   3.953   6.515 -0.0088  0.2874 -0.6493
   33PEO   H1CE22926   5.655   4.074   6.648 -2.1209  1.8004 -0.8879
   33PEO   O1CF22927   5.622   4.139   6.452  0.0961 -0.6423 -1.0378
   33PEO   H1D022928   5.442   4.165   6.568  0.4058  0.1775  0.0512
   33PEO   H1D122929   5.431   4.038   6.444 -2.3069 -0.1718  1.8748
   33PEO   C1D222930   5.475   4.136   6.467 -0.5596 -0.4271 -0.1050
   33PEO   C1D322931   5.423   4.231   6.358 -0.7912 -1.3704 -0.1782
   33PEO   H1D422932   5.477   4.205   6.266  1.2237  0.3828  0.4280
   33PEO   H1D522933   5.314   4.224   6.342 -1.0186  2.2790 -1.3427
   33PEO   O1D622934   5.456   4.372   6.406  0.4598  0.3934  0.3937
   33PEO   H1D722935   5.668   4.365   6.398  1.1131  0.8825  0.1692
   33PEO   H1D822936   5.576   4.525   6.422  0.6592 -0.2997  0.9173
   33PEO   C1D922937   5.584   4.429   6.369  0.1798 -0.1323  0.5395
   33PEO   C1DA22938   5.579   4.448   6.213 -0.0487  0.4225  0.3923
   33PEO   H1DB22939   5.476   4.463   6.176  0.7661  2.2913 -1.3459
   33PEO   H1DC22940   5.632   4.541   6.186  1.3255 -0.8750 -1.7401
   33PEO   O1DD22941   5.652   4.342   6.147 -0.2302  0.2274  0.2917
   33PEO   H1DE22942   5.761   4.335   5.961 -0.1572 -1.9513 -0.8883
   33PEO   H1DF22943   5.608   4.434   5.955 -3.4074 -1.9759 -0.8710
   33PEO   C1E022944   5.658   4.345   5.997  0.0516 -0.1144 -0.6875
   33PEO   C1E122945   5.570   4.231   5.943  0.6034 -0.5916  0.7542
   33PEO   H1E222946   5.585   4.239   5.835 -0.2301 -0.9288  0.6017
   33PEO   H1E322947   5.614   4.139   5.984  1.9492  0.8316  2.7103
   33PEO   O1E422948   5.435   4.243   5.988 -0.2587 -0.0207 -0.2880
   33PEO   H1E522949   5.349   4.347   5.821 -0.2522  2.1460 -0.9187
   33PEO   H1E622950   5.386   4.446   5.970  0.1092  0.4427 -0.5347
   33PEO   C1E722951   5.352   4.348   5.931  0.6985  0.3723 -0.8848
   33PEO   C1E822952   5.204   4.329   5.979 -0.5557 -0.0438 -0.2628
   33PEO   H1E922953   5.215   4.323   6.089  3.3201 -1.8116 -0.5814
   33PEO   H1EA22954   5.167   4.427   5.946  1.1994  1.3475  1.6320
   33PEO   O1EB22955   5.143   4.221   5.909 -0.5030  0.2422 -0.0952
   33PEO   H1EC22956   4.954   4.298   5.841 -1.0482 -2.7634 -1.7280
   33PEO   H1ED22957   4.958   4.264   6.013 -1.8689 -0.2939 -0.6344
   33PEO   C1EE22958   4.999   4.232   5.917 -0.4068 -0.4904  0.0256
   33PEO   C1EF22959   4.929   4.103   5.880  0.1459  0.7557 -0.6007
   33PEO   H1F022960   4.820   4.115   5.869 -0.0080  0.4057  0.4450
   33PEO   H1F122961   4.966   4.064   5.784  0.3541 -0.8489  0.0949
   33PEO   O1F222962   4.932   4.008   5.991 -0.8044 -0.3789 -0.3261
   33PEO   H1F322963   4.968   3.835   5.866 -0.4893 -1.0747 -1.0070
   33PEO   H1F422964   4.803   3.850   5.941  0.2145  1.1914  1.1625
   33PEO   C1F522965   4.911   3.869   5.954  0.7739 -0.6137 -0.3423
   33PEO   C1F622966   4.953   3.787   6.081  0.0468 -0.5035 -0.0440
   33PEO   H1F722967   4.938   3.679   6.069  0.3801 -0.6795  1.0204
   33PEO   H1F822968   5.060   3.800   6.106  0.4871 -2.1979 -0.8847
   33PEO   O1F922969   4.879   3.811   6.198  0.1982 -0.5191  0.2463
   33PEO   H1FA22970   4.711   3.721   6.127  1.0680 -0.4662 -0.5399
   33PEO   H1FB22971   4.692   3.899   6.143 -3.4108 -0.2893  2.8870
   33PEO   C1FC22972   4.735   3.809   6.189  0.3160 -0.4021 -0.3225
   33PEO   C1FD22973   4.671   3.785   6.325 -0.0044 -0.0250 -0.0951
   33PEO   H1FE22974   4.684   3.870   6.393  0.6759  0.6418 -1.0281
   33PEO   H1FF22975   4.562   3.775   6.319 -0.0644  1.0287 -0.9446
   33PEO   O20022976   4.718   3.670   6.387  0.0029  0.5385 -0.0538
   33PEO   H20122977   4.576   3.687   6.528  0.7970  0.3778  0.7478
   33PEO   H20222978   4.746   3.728   6.567  1.2728  0.9488 -2.8338
   33PEO   C20322979   4.681   3.654   6.518  0.4681 -0.5272  0.1882
   33PEO   C20422980   4.697   3.512   6.567 -0.3628 -0.1885  0.1572
   33PEO   H20522981   4.803   3.486   6.580 -0.0514  1.6249  1.7265
   33PEO   H20622982   4.653   3.500   6.667 -0.9510 -0.3381 -0.1125
   33PEO   O20722983   4.645   3.419   6.473 -0.4309  0.1277  0.1937
   33PEO   H20822984   4.488   3.381   6.345 -0.0859  3.0330 -0.7250
   33PEO   H20922985   4.472   3.537   6.428  0.7417  0.3277 -2.2254
   33PEO   C20A22986   4.501   3.432   6.441  0.0986  0.4337  0.7000
   33PEO   C20B22987   4.440   3.370   6.563  0.3673  0.3708  0.3571
   33PEO   H20C22988   4.478   3.424   6.652  3.5548  0.7354 -1.0885
   33PEO   H20D22989   4.331   3.383   6.561  0.3754  2.6821  4.0950
   33PEO   O20E22990   4.477   3.226   6.583  0.7299 -0.3200  0.2321
   33PEO   H20F22991   4.392   3.222   6.777 -0.6502 -2.0791  1.0235
   33PEO   H21022992   4.466   3.074   6.719  2.1659  0.1812 -0.4953
   33PEO   C21122993   4.403   3.159   6.688  1.7946 -0.0146 -0.2828
   33PEO   C21222994   4.262   3.114   6.643  0.3887 -0.5777 -0.1532
   33PEO   H21322995   4.205   3.064   6.722 -1.7813 -1.9423 -2.4048
   33PEO   H21422996   4.209   3.206   6.613  2.5106  0.7929  0.0994
   33PEO   O21522997   4.272   3.028   6.530 -0.0788 -0.6932  0.4451
   33PEO   H21622998   4.061   3.045   6.497 -1.6560 -2.3630 -1.7032
   33PEO   H21722999   4.113   2.885   6.531 -1.3083 -1.5212 -2.1992
   33PEO   C21823000   4.145   2.976   6.478  0.1869 -0.7126 -0.0095
   33PEO   C21923001   4.158   2.934   6.332 -0.7721 -0.0943  0.4313
   33PEO   H21A23002   4.054   2.909   6.306 -1.5630  2.5044  0.8826
   33PEO   H21B23003   4.196   3.014   6.268 -0.7620 -0.1206  0.4044
   33PEO   O21C23004   4.245   2.817   6.309 -0.9255  0.2158  0.7556
   33PEO   H21D23005   4.251   2.811   6.092 -1.4597 -0.8368 -1.4487
   33PEO   H21E23006   4.117   2.715   6.171 -1.4852  1.4149  0.2687
   33PEO   C21F23007   4.221   2.749   6.178 -0.9353 -0.0040 -0.6457
   33PEO   C22023008   4.318   2.630   6.197  0.0615  0.4637  0.1005
   33PEO   H22123009   4.310   2.577   6.100  0.1708 -0.9755  0.8510
   33PEO   H22223010   4.416   2.674   6.223 -0.9329  1.8642  1.6305
   33PEO   O22323011   4.264   2.540   6.296 -0.0018 -0.2834 -0.2096
   33PEO   H22423012   4.359   2.367   6.249 -0.8562  0.0759 -0.5390
   33PEO   H22523013   4.297   2.365   6.416  4.3625 -1.3493  1.5663
   33PEO   C22623014   4.346   2.427   6.340  0.1935  0.0129 -0.3327
   33PEO   C22723015   4.476   2.466   6.411  0.6716  0.5298  0.3413
   33PEO   H22823016   4.470   2.567   6.452  0.8135  0.9735 -0.6902
   33PEO   H22923017   4.506   2.390   6.485 -2.3907  1.1358  2.3972
   33PEO   O22A23018   4.582   2.458   6.306  0.2294 -0.0376 -0.3805
   33PEO   H22B23019   4.768   2.487   6.405  1.5679  0.2249 -2.0158
   33PEO   H22C23020   4.674   2.627   6.392  1.8445  2.2748 -0.8044
   33PEO   C22D23021   4.699   2.536   6.334 -0.3724  0.9124  0.2440
   33PEO   C22E23022   4.783   2.562   6.202 -0.7516 -0.0497  1.1131
   33PEO   H22F23023   4.872   2.620   6.234 -0.0098  0.5995 -1.8039
   33PEO   H23023024   4.824   2.469   6.162  0.7660  0.4232  1.4646
   33PEO   O23123025   4.720   2.638   6.092  0.2104 -0.3696 -0.1776
   33PEO   H23223026   4.766   2.839   6.135  0.4951  1.3956 -1.0347
   33PEO   H23323027   4.602   2.784   6.190  0.6009  1.0949  0.1949
   33PEO   C23423028   4.680   2.773   6.114  0.9517  0.2039  0.6710
   33PEO   C23523029   4.615   2.829   5.981  0.3887 -0.4983 -0.0740
   33PEO   H23623030   4.589   2.927   6.023  0.0357 -0.7922  0.4096
   33PEO   H23723031   4.684   2.838   5.896 -1.0319  0.8595 -1.1343
   33PEO   O23823032   4.494   2.751   5.944 -0.5228  0.2312 -0.3855
   33PEO   H23923033   4.400   2.925   5.913  1.6104 -0.5267  2.3056
   33PEO   H23A23034   4.304   2.768   5.872  0.5374 -0.1444  1.0809
   33PEO   C23B23035   4.399   2.824   5.868  0.2220  0.3457  0.2365
   33PEO   C23C23036   4.449   2.838   5.723  1.1057 -0.2953  0.2153
   33PEO   H23D23037   4.494   2.743   5.692 -0.8639 -1.1473 -0.1958
   33PEO   H23E23038   4.369   2.872   5.655  1.0835 -1.4104 -0.3360
   33PEO   O23F23039   4.532   2.953   5.723  0.5590  0.3940 -1.3774
   33PEO   H24023040   4.474   3.011   5.531  0.5779 -1.0423 -1.3659
   33PEO   H24123041   4.649   2.951   5.538  0.3418  2.3304 -0.4131
   33PEO   C24223042   4.566   3.000   5.591 -0.4538  0.1113  0.5086
   33PEO   C24323043   4.606   3.142   5.609  0.4037 -0.2472 -0.4803
   33PEO   H24423044   4.660   3.177   5.521  0.5961  1.5644  0.3248
   33PEO   H24523045   4.514   3.202   5.621 -0.8567 -2.5525  3.2059
   33PEO   O24623046   4.692   3.157   5.727  0.1410 -0.1115  0.4556
   33PEO   H24723047   4.868   3.077   5.642  0.0654 -2.6002  0.3812
   33PEO   H24823048   4.781   2.971   5.755 -1.6011  0.0617 -2.4354
   33PEO   C24923049   4.810   3.075   5.736 -0.3176  0.2954  0.3123
   33PEO   C24A23050   4.902   3.129   5.846  0.7615 -0.0480 -0.0381
   33PEO   H24B23051   4.986   3.060   5.854 -0.7026 -2.0238 -0.9382
   33PEO   H24C23052   4.940   3.228   5.817 -0.7240 -0.0246 -2.1247
   33PEO   O24D23053   4.836   3.139   5.969  0.5006  0.3942  0.0718
   33PEO   H24E23054   4.985   3.258   6.055  1.3634 -0.9613 -0.6771
   33PEO   H24F23055   5.001   3.084   6.088 -2.4204 -2.2634  0.1560
   33PEO   C25023056   4.928   3.166   6.076  0.0067  0.1564  0.8284
   33PEO   C25123057   4.849   3.213   6.207  0.1182  0.7274  0.3599
   33PEO   H25223058   4.911   3.200   6.296 -1.0412  2.5647  1.5160
   33PEO   H25323059   4.826   3.321   6.210  1.9131  1.1403  4.0871
   33PEO   O25423060   4.746   3.114   6.228 -0.9489 -0.2721  0.4160
   33PEO   H25523061   4.612   3.186   6.350  1.2106  2.9982 -2.5038
   33PEO   H25623062   4.763   3.152   6.443 -0.3257 -0.8492  0.1931
   33PEO   C25723063   4.696   3.117   6.363 -1.1004  0.4033  0.2675
   33PEO   C25823064   4.634   2.979   6.396 -0.6404 -0.0166  0.1873
   33PEO   H25923065   4.575   3.005   6.486 -2.1860  3.8853 -1.6838
   33PEO   H25A23066   4.562   2.952   6.318  1.3338 -1.4860 -1.2126
   33PEO   O25B23067   4.719   2.869   6.423  0.4053  0.0591  0.1666
   33PEO   H25C23068   4.714   2.832   6.629 -0.2406  3.8342  1.3953
   33PEO   H25D23069   4.820   2.966   6.579  2.4940 -1.8311  0.0592
   33PEO   C25E23070   4.784   2.866   6.552  0.2889 -0.9394 -0.5924
   33PEO   C25F23071   4.901   2.777   6.551  0.6557  0.0459 -0.7459
   33PEO   H26023072   4.943   2.788   6.652 -1.4979 -0.2568  0.2343
   33PEO   H26123073   4.869   2.673   6.536  0.3171  0.0873 -0.3312
   33PEO   O26223074   4.996   2.818   6.451 -0.0929 -0.1047  0.5240
   33PEO   H26323075   5.060   2.629   6.417 -1.8850  0.5071 -1.3873
   33PEO   H26423076   5.146   2.701   6.551 -0.5757  1.4793  0.8340
   33PEO   C26523077   5.103   2.724   6.452 -0.2298 -0.7321  0.0977
   33PEO   C26623078   5.211   2.763   6.349  0.2715  0.6524 -0.3132
   33PEO   H26723079   5.225   2.872   6.348  0.7914  0.6148 -2.4008
   33PEO   H26823080   5.310   2.718   6.362  1.1062  1.8723 -2.0233
   33PEO   O26923081   5.168   2.723   6.217  0.4600  0.0317 -0.4698
   33PEO   H26A23082   5.142   2.916   6.143  0.8378 -0.1316 -1.8754
   33PEO   H26B23083   4.993   2.831   6.206  1.2304  2.5649  0.8325
   33PEO   C26C23084   5.086   2.821   6.148  0.0822  0.3550 -0.7713
   33PEO   C26D23085   5.045   2.770   6.006 -0.3023  0.4913  0.5181
   33PEO   H26E23086   5.019   2.663   6.011  0.2906  0.3801  1.3656
   33PEO   H26F23087   4.951   2.818   5.975 -1.3512 -1.9539 -0.2961
   33PEO   O27023088   5.153   2.805   5.917 -0.4109  0.4327  0.4063
   33PEO   H27123089   5.029   2.840   5.753  0.9908  0.4171 -1.0784
   33PEO   H27223090   5.114   2.681   5.765 -1.1744 -0.1467  0.3078
   33PEO   C27323091   5.122   2.790   5.782  0.2671 -0.2163  0.2308
   33PEO   C27423092   5.228   2.863   5.707  0.0169 -0.0467 -0.6556
   33PEO   H27523093   5.327   2.838   5.748  0.0824  0.1335 -0.7025
   33PEO   H27623094   5.217   2.814   5.609 -0.5354 -0.5338 -0.3564
   33PEO   O27723095   5.202   3.010   5.704 -0.2522  0.3650 -0.0218
   33PEO   H27823096   5.248   3.027   5.905  0.9290 -1.7506 -0.1092
   33PEO   H27923097   5.216   3.180   5.812 -1.2099 -1.2430  0.8381
   33PEO   C27A23098   5.269   3.083   5.812  0.5858 -0.3153  0.6500
   33PEO   C27B23099   5.412   3.124   5.778 -0.3032 -0.0166  0.4176
   33PEO   H27C23100   5.458   3.166   5.868  1.4369 -0.0067 -0.4360
   33PEO   H27D23101   5.478   3.041   5.749  0.4637 -0.4478  3.1424
   33PEO   O27E23102   5.409   3.227   5.685 -0.5815  0.3871  0.0724
   33PEO   H27F23103   5.612   3.210   5.608  1.4744  2.7253 -2.4521
   33PEO   H28023104   5.579   3.337   5.731 -0.6899  3.5490 -1.5198
   33PEO   C28123105   5.536   3.279   5.647  0.2677  0.1627  0.1245
   33PEO   C28223106   5.510   3.371   5.524 -0.7710  0.3438 -0.3234
   33PEO   H28323107   5.416   3.427   5.534 -1.7443 -1.3428  0.5017
   33PEO   H28423108   5.602   3.430   5.514 -0.7728  0.0894 -2.2433
   33PEO   O28523109   5.503   3.290   5.403  0.0147  0.1029 -0.1991
   33PEO   H28623110   5.530   3.449   5.268  1.1307 -1.0644 -0.7436
   33PEO   H28723111   5.364   3.377   5.271 -0.7127 -1.3935 -1.8223
   33PEO   C28823112   5.472   3.356   5.281 -0.5292 -0.0392 -0.6634
   33PEO   C28923113   5.517   3.265   5.159  0.9125  0.2573 -0.1452
   33PEO   H28A23114   5.502   3.157   5.175  2.4716  0.0424  0.0054
   33PEO   H28B23115   5.453   3.300   5.076 -0.4000  0.3560  0.8663
   33PEO   O28C23116   5.653   3.293   5.119 -0.3637 -0.2140 -0.6138
   33PEO   H28D23117   5.751   3.139   5.242  1.7757 -0.3646 -1.4282
   33PEO   H28E23118   5.757   3.315   5.301 -0.1189  1.8283 -1.4738
   33PEO   C28F23119   5.755   3.246   5.216 -0.1701  0.0780 -0.1144
   33PEO   C29023120   5.892   3.250   5.148  0.4067  0.3218  0.0522
   33PEO   H29123121   5.882   3.327   5.071  1.6289 -0.7760 -1.2606
   33PEO   H29223122   5.973   3.292   5.211  1.3119  1.0450 -1.5379
   33PEO   O29323123   5.925   3.123   5.094 -0.0673  0.2504  0.2852
   33PEO   H29423124   6.126   3.186   5.086  1.0094 -0.9000 -2.4927
   33PEO   H29523125   6.050   3.189   4.929  2.4806 -1.4413 -0.6272
   33PEO   C29623126   6.054   3.132   5.023 -0.7179 -1.3351 -0.2987
   33PEO   C29723127   6.102   2.988   4.991  0.0611  0.2267  0.3058
   33PEO   H29823128   6.210   2.989   5.011  0.6324 -1.4021 -2.2631
   33PEO   H29923129   6.062   2.909   5.056  2.5512  0.0066  1.6844
   33PEO   O29A23130   6.082   2.970   4.853 -0.0625  0.2599 -0.0401
   33PEO   H29B23131   6.152   2.767   4.832 -0.2930 -0.3725  0.2824
   33PEO   H29C23132   6.264   2.893   4.773 -0.6729  1.5913 -1.6022
   33PEO   C29D23133   6.158   2.867   4.786 -0.0290 -0.5318 -0.0325
   33PEO   C29E23134   6.111   2.853   4.642 -0.3596 -0.5528 -0.7420
   33PEO   H29F23135   6.066   2.944   4.601  1.9987  0.2507 -1.6825
   33PEO   H2A023136   6.202   2.842   4.581 -2.1524 -3.4356 -3.1802
   33PEO   O2A123137   6.024   2.739   4.631  0.6433 -0.2906  0.2974
   33PEO   H2A223138   5.999   2.796   4.436 -1.1600  0.2346  0.0865
   33PEO   H2A323139   5.903   2.657   4.509 -1.2068  2.7406  1.7728
   33PEO   C2A423140   6.001   2.704   4.496 -0.1443  0.2740  0.1298
   33PEO   C2A523141   6.096   2.595   4.435 -0.1097  0.3447 -0.2679
   33PEO   H2A623142   6.150   2.541   4.514 -0.9428  0.0231  0.0867
   33PEO   H2A723143   6.033   2.519   4.387  2.9717 -1.0144 -2.5251
   33PEO   O2A823144   6.182   2.653   4.341 -0.0168 -0.2312  0.1404
   33PEO   H2A923145   6.029   2.715   4.213  0.1474  1.2669 -2.0039
   33PEO   H2AA23146   6.114   2.565   4.162  3.3049 -0.8918  1.4416
   33PEO   C2AB23147   6.126   2.664   4.208 -0.1735  0.3498  0.0453
   33PEO   C2AC23148   6.221   2.741   4.110  0.1955 -0.4283 -1.0724
   33PEO   H2AD23149   6.324   2.717   4.142  1.7104  1.4257 -4.0658
   33PEO   H2AE23150   6.201   2.698   4.010  2.4116 -3.9075 -0.2195
   33PEO   O2AF23151   6.185   2.878   4.125  0.4546  0.4966  0.0949
   33PEO   H2B023152   6.306   2.896   4.290  0.7468  0.2830 -1.4711
   33PEO   H2B123153   6.127   2.931   4.328  0.9583  0.0292  0.3896
   33PEO   C2B223154   6.209   2.936   4.255  0.2358 -0.0370 -0.4446
   33PEO   C2B323155   6.234   3.086   4.230 -0.4229 -0.3985  0.4551
   33PEO   H2B423156   6.309   3.118   4.304  0.4810 -0.2043 -0.5204
   33PEO   H2B523157   6.280   3.089   4.130  1.9944 -3.3995  1.3202
   33PEO   O2B623158   6.108   3.152   4.260 -0.8321  0.4874 -0.1761
   33PEO   H2B723159   6.090   3.262   4.083  1.3351  1.2756 -1.4067
   33PEO   H2B823160   6.197   3.334   4.203 -1.0706 -0.4827  1.0196
   33PEO   C2B923161   6.103   3.278   4.191 -0.6227 -0.8996 -0.7449
   33PEO   C2BA23162   5.989   3.361   4.251  0.5263  0.0377  0.0033
   33PEO   H2BB23163   5.984   3.461   4.205 -1.5176 -0.6507 -1.4256
   33PEO   H2BC23164   5.897   3.300   4.241  0.9561 -0.8005  0.9450
   33PEO   O2BD23165   5.996   3.394   4.389  0.1454  0.4403 -0.4136
   33PEO   H2BE23166   6.074   3.348   4.423 -0.6597  0.2785  1.3546
   34PEO   H00123167   6.039   0.867   1.400 -0.2140  1.0711  0.3641
   34PEO   H00223168   5.918   0.746   1.368 -1.7962 -0.1991  0.6563
   34PEO   H00323169   5.881   0.926   1.355 -0.1423  1.1895  1.7285
   34PEO   C00423170   5.932   0.846   1.411 -0.0506 -0.0844 -0.1157
   34PEO   C00523171   5.884   0.861   1.559  0.2387 -0.0594  0.1425
   34PEO   H00623172   5.775   0.873   1.565  0.1680 -1.0693  1.1295
   34PEO   H00723173   5.916   0.777   1.622 -0.9984 -1.4915 -1.0772
   34PEO   O00823174   5.941   0.974   1.615 -0.2939  0.5197 -0.0546
   34PEO   H00923175   5.949   0.901   1.818 -2.1384  0.0635  1.2667
   34PEO   H00A23176   5.798   0.977   1.785  0.7512  0.3448  1.7194
   34PEO   C00B23177   5.905   0.984   1.762  0.4165  0.8212  0.2309
   34PEO   C00C23178   5.960   1.112   1.831 -0.4018 -0.2770  0.8084
   34PEO   H00D23179   5.935   1.193   1.761 -0.3004 -0.8131  0.1487
   34PEO   H00E23180   5.898   1.141   1.918 -0.5928 -1.4229  1.0703
   34PEO   O00F23181   6.100   1.109   1.844  0.1985  0.6095  0.0773
   34PEO   H01023182   6.092   1.247   1.988  0.9273 -0.6112  0.9519
   34PEO   H01123183   6.179   1.298   1.835 -0.0538 -1.0939 -0.0174
   34PEO   C01223184   6.162   1.218   1.908 -0.2062 -0.9803  0.0704
   34PEO   C01323185   6.294   1.175   1.975 -0.3652 -0.3325  0.3926
   34PEO   H01423186   6.334   1.253   2.042  0.0261 -0.1118 -0.0912
   34PEO   H01523187   6.281   1.079   2.026  1.9700 -0.5205  0.7700
   34PEO   O01623188   6.385   1.165   1.856 -0.4642 -0.0302  0.0199
   34PEO   H01723189   6.387   0.961   1.873 -1.3153  1.1674  0.4116
   34PEO   H01823190   6.527   1.042   1.941  0.4275 -1.2820  0.4253
   34PEO   C01923191   6.459   1.041   1.855  0.5300 -0.4494  0.3301
   34PEO   C01A23192   6.528   1.050   1.719 -0.3985 -0.0084  0.2989
   34PEO   H01B23193   6.549   1.157   1.701  1.5576 -0.7473 -2.4248
   34PEO   H01C23194   6.625   0.999   1.732  0.9048  2.1534 -0.3041
   34PEO   O01D23195   6.444   1.008   1.609 -0.0918  0.3922 -0.4542
   34PEO   H01E23196   6.325   1.174   1.593  2.0323 -0.7167 -1.3308
   34PEO   H01F23197   6.251   1.032   1.666 -1.0144  0.6905 -0.4244
   34PEO   C02023198   6.319   1.064   1.586 -0.0972 -0.7292 -0.2428
   34PEO   C02123199   6.267   1.018   1.447 -0.8660 -0.3496  0.3395
   34PEO   H02223200   6.166   1.051   1.420 -1.2255 -0.6795  1.2763
   34PEO   H02323201   6.329   1.062   1.367 -0.5850  0.9698  1.2525
   34PEO   O02423202   6.273   0.874   1.447  0.7127 -0.3215  0.4641
   34PEO   H02523203   6.388   0.831   1.281 -0.5374  3.0393 -2.5771
   34PEO   H02623204   6.217   0.886   1.254 -2.4157 -1.7902 -0.1444
   34PEO   C02723205   6.284   0.822   1.314  0.1156  0.0347 -0.8666
   34PEO   C02823206   6.242   0.673   1.301 -0.2056  0.0278 -0.6933
   34PEO   H02923207   6.316   0.629   1.233  0.6979 -0.9522  0.8741
   34PEO   H02A23208   6.254   0.622   1.397  2.0526  0.2475 -0.8239
   34PEO   O02B23209   6.115   0.660   1.242  0.0214  0.7467 -0.5097
   34PEO   H02C23210   6.130   0.449   1.274  0.4305  1.5257  0.4497
   34PEO   H02D23211   6.168   0.514   1.107 -0.0965 -0.3064 -0.8941
   34PEO   C02E23212   6.105   0.523   1.197  0.0122  0.0622 -0.8514
   34PEO   C02F23213   5.962   0.508   1.143  0.0748  0.0321 -0.6632
   34PEO   H03023214   5.948   0.588   1.069 -0.9540  0.3183 -0.1762
   34PEO   H03123215   5.953   0.413   1.088 -1.6317 -1.5983  2.1802
   34PEO   O03223216   5.862   0.522   1.249  0.0794 -0.2817  0.2265
   34PEO   H03323217   5.729   0.367   1.201 -1.7142  0.3438 -0.8682
   34PEO   H03423218   5.727   0.524   1.102  2.8700  0.9206 -0.3118
   34PEO   C03523219   5.732   0.477   1.201 -0.3429  0.3162 -0.3196
   34PEO   C03623220   5.630   0.525   1.303  0.0653  0.2804 -0.0207
   34PEO   H03723221   5.536   0.489   1.259  0.4835  0.7712 -1.3819
   34PEO   H03823222   5.656   0.474   1.397  1.7411 -0.1169 -0.6647
   34PEO   O03923223   5.635   0.669   1.307  0.0499 -0.4476 -0.4766
   34PEO   H03A23224   5.482   0.653   1.451  2.6276  0.4500  0.3341
   34PEO   H03B23225   5.447   0.717   1.290 -0.2779 -1.7734  1.5141
   34PEO   C03C23226   5.520   0.720   1.372  1.4856  0.7142 -0.0089
   34PEO   C03D23227   5.541   0.860   1.418  0.0555  0.3154  0.0877
   34PEO   H03E23228   5.547   0.867   1.528 -0.6176  1.5548  0.0680
   34PEO   H03F23229   5.632   0.910   1.383 -1.2464  4.2936  1.8553
   34PEO   O04023230   5.433   0.949   1.372 -0.3422 -0.0473  0.6747
   34PEO   H04123231   5.364   1.028   1.562 -1.1968  2.4471 -0.5210
   34PEO   H04223232   5.292   0.879   1.491  2.6200 -1.8662 -1.5692
   34PEO   C04323233   5.327   0.981   1.469 -0.5019 -0.1941  0.4455
   34PEO   C04423234   5.235   1.080   1.397  1.4052 -0.2355  0.9080
   34PEO   H04523235   5.190   1.029   1.310 -2.2217  0.5908  2.1226
   34PEO   H04623236   5.149   1.112   1.459  0.1577  0.4561 -1.0940
   34PEO   O04723237   5.310   1.202   1.357  0.6458 -0.4870 -0.6763
   34PEO   H04823238   5.198   1.332   1.474 -3.6508 -1.4732 -0.2599
   34PEO   H04923239   5.132   1.312   1.306  1.0159 -1.2707 -1.3551
   34PEO   C04A23240   5.223   1.322   1.368 -0.1822  0.7977  0.1993
   34PEO   C04B23241   5.297   1.446   1.325  0.4564  0.5557  0.5818
   34PEO   H04C23242   5.261   1.532   1.383  1.4735  0.7744  0.9038
   34PEO   H04D23243   5.405   1.457   1.341  0.5245  1.4133 -0.3883
   34PEO   O04E23244   5.262   1.470   1.183  0.0271  0.1182 -1.0451
   34PEO   H04F23245   5.446   1.548   1.151 -0.8195 -1.2145  0.8207
   34PEO   H05023246   5.299   1.663   1.139 -0.1853 -0.0965  0.7949
   34PEO   C05123247   5.344   1.566   1.112 -0.4561 -0.1004  0.3402
   34PEO   C05223248   5.334   1.544   0.967 -0.4542 -0.2634  0.2826
   34PEO   H05323249   5.230   1.517   0.945 -0.8566  1.0728  0.4658
   34PEO   H05423250   5.363   1.636   0.915 -1.1965 -0.3522 -0.2958
   34PEO   O05523251   5.419   1.430   0.938  0.4299 -0.6569 -0.3379
   34PEO   H05623252   5.515   1.330   0.781  0.2363  0.4901 -2.5955
   34PEO   H05723253   5.488   1.492   0.736 -1.4268  0.6829 -1.9182
   34PEO   C05823254   5.443   1.411   0.795  0.5589  0.4665 -0.6035
   34PEO   C05923255   5.307   1.365   0.727  0.3717  0.6185 -0.3702
   34PEO   H05A23256   5.244   1.450   0.753  0.7469  0.8848 -0.3280
   34PEO   H05B23257   5.311   1.351   0.618 -1.2873  2.2079 -0.6823
   34PEO   O05C23258   5.250   1.243   0.771 -0.9313 -0.3117  0.1051
   34PEO   H05D23259   5.099   1.126   0.794  0.3960 -0.1702  0.5919
   34PEO   H05E23260   5.134   1.170   0.621 -0.0218  4.1583 -1.0023
   34PEO   C05F23261   5.118   1.208   0.723 -0.6239  0.1000  0.6086
   34PEO   C06023262   5.014   1.318   0.737  1.0606  0.6582  1.2422
   34PEO   H06123263   4.909   1.286   0.746  0.3960  2.1860 -0.6021
   34PEO   H06223264   5.025   1.380   0.827 -1.8321  1.5437  1.0700
   34PEO   O06323265   5.029   1.408   0.621  0.1517  0.0389 -0.0922
   34PEO   H06423266   4.838   1.522   0.643 -1.5957 -0.9193 -0.4339
   34PEO   H06523267   4.838   1.378   0.546  0.1370  0.6580  0.3042
   34PEO   C06623268   4.904   1.460   0.580  0.8036 -0.2409  1.2535
   34PEO   C06723269   4.944   1.540   0.456  0.3932 -0.1086 -1.2451
   34PEO   H06823270   5.009   1.487   0.383  2.6849  2.2249 -1.0425
   34PEO   H06923271   4.850   1.556   0.401 -0.9477 -1.3977  0.5588
   34PEO   O06A23272   4.985   1.668   0.494  0.1050  0.0531  0.4070
   34PEO   H06B23273   5.164   1.654   0.401 -1.6455 -1.9408 -0.6605
   34PEO   H06C23274   5.169   1.603   0.575  0.5624  1.0446  1.0602
   34PEO   C06D23275   5.130   1.676   0.503 -0.2375 -0.7574 -0.4050
   34PEO   C06E23276   5.155   1.824   0.539 -0.3581 -0.3556 -0.2188
   34PEO   H06F23277   5.262   1.844   0.561 -0.2344  1.2774 -2.0181
   34PEO   H07023278   5.121   1.887   0.456 -2.0523 -0.0266  0.6747
   34PEO   O07123279   5.087   1.850   0.661  0.0867 -0.8083 -0.2295
   34PEO   H07223280   5.224   1.774   0.802 -0.9123 -0.6875  2.9716
   34PEO   H07323281   5.081   1.669   0.758 -1.3531 -0.2269 -2.0253
   34PEO   C07423282   5.116   1.771   0.777 -0.2897 -0.8935 -0.1222
   34PEO   C07523283   5.042   1.824   0.894  0.5369 -0.4154  0.0294
   34PEO   H07623284   4.935   1.846   0.877  0.7644 -0.4989 -1.7666
   34PEO   H07723285   5.063   1.759   0.979 -2.9298 -1.3460  0.3306
   34PEO   O07823286   5.099   1.950   0.920 -0.9107  0.4422 -0.0132
   34PEO   H07923287   4.940   2.017   1.059 -0.2553  1.6913  0.5182
   34PEO   H07A23288   5.077   2.127   1.037 -0.5643  0.6688 -0.1742
   34PEO   C07B23289   5.049   2.021   1.047 -0.3102  0.5707 -0.4961
   34PEO   C07C23290   5.121   1.981   1.181 -0.3149 -0.4505  0.2901
   34PEO   H07D23291   5.228   2.006   1.169 -0.7916  1.2777 -0.8314
   34PEO   H07E23292   5.080   2.037   1.266 -0.0856  0.3742 -0.1302
   34PEO   O07F23293   5.121   1.839   1.202  0.3666 -0.4242  0.0245
   34PEO   H08023294   4.996   1.683   1.240 -0.1348  0.3267  0.2080
   34PEO   H08123295   4.911   1.841   1.224  1.4303  0.7776 -0.5737
   34PEO   C08223296   4.999   1.790   1.264  0.8664  0.3217  0.1189
   34PEO   C08323297   5.001   1.809   1.414 -0.2792  0.1973 -0.7329
   34PEO   H08423298   5.038   1.912   1.427 -3.4917  1.3014  0.6242
   34PEO   H08523299   4.899   1.785   1.447 -0.1708  0.1469 -0.4372
   34PEO   O08623300   5.100   1.720   1.461 -0.3569  0.3102  0.1979
   34PEO   H08723301   5.139   1.805   1.643  2.7360 -0.4240 -0.0945
   34PEO   H08823302   5.212   1.648   1.618  0.6703 -0.0288  0.1738
   34PEO   C08923303   5.121   1.707   1.598  0.4788 -0.2662  0.3344
   34PEO   C08A23304   4.996   1.632   1.659 -0.0752  0.0295  0.1444
   34PEO   H08B23305   4.993   1.628   1.769  0.3976 -1.5505  0.1326
   34PEO   H08C23306   4.917   1.702   1.629  0.3644  0.6683  0.4311
   34PEO   O08D23307   4.990   1.509   1.591  0.3251 -0.1630 -0.3079
   34PEO   H08E23308   4.770   1.488   1.601 -1.4369 -2.5745 -1.6850
   34PEO   H08F23309   4.867   1.372   1.695 -0.2089  2.2333  0.4592
   34PEO   C09023310   4.865   1.433   1.603  0.3028  0.2690 -0.9251
   34PEO   C09123311   4.877   1.331   1.489 -0.3785 -0.8963  0.0376
   34PEO   H09223312   4.867   1.385   1.393 -2.5978  1.7854  1.5988
   34PEO   H09323313   4.978   1.289   1.496  0.6945  1.4677 -0.2900
   34PEO   O09423314   4.780   1.228   1.495 -0.0214 -0.2618  0.2506
   34PEO   H09523315   4.877   1.084   1.379 -0.2862 -0.8951 -2.3263
   34PEO   H09623316   4.769   1.190   1.285 -0.5957 -3.0769 -1.6445
   34PEO   C09723317   4.784   1.144   1.384  0.2972 -0.0487 -0.2442
   34PEO   C09823318   4.668   1.037   1.404 -0.3340 -0.4143 -0.7733
   34PEO   H09923319   4.577   1.098   1.404  0.5451  0.9376 -1.5937
   34PEO   H09A23320   4.655   0.977   1.313  0.7843  1.7640 -2.4533
   34PEO   O09B23321   4.695   0.961   1.519  0.2995  0.3198 -0.4624
   34PEO   H09C23322   4.486   0.936   1.577 -1.3025 -0.3139 -0.5527
   34PEO   H09D23323   4.604   0.829   1.656 -0.3887 -0.3056 -0.5938
   34PEO   C09E23324   4.577   0.877   1.561 -0.9062  0.1971 -0.2051
   34PEO   C09F23325   4.534   0.765   1.467 -0.1186  0.0087  0.5383
   34PEO   H0A023326   4.513   0.683   1.538  0.9052 -0.8510 -0.1407
   34PEO   H0A123327   4.435   0.787   1.424 -0.4507 -1.1742  0.6747
   34PEO   O0A223328   4.641   0.733   1.369 -0.0809 -0.2254 -0.1963
   34PEO   H0A323329   4.596   0.533   1.311  0.4380 -0.3350 -0.9822
   34PEO   H0A423330   4.721   0.612   1.226  0.5833  1.7594  1.3087
   34PEO   C0A523331   4.622   0.632   1.269 -0.5396  0.1871 -0.3763
   34PEO   C0A623332   4.513   0.668   1.166  0.7574  0.1201 -0.0822
   34PEO   H0A723333   4.541   0.763   1.117  4.2199  0.0323  1.4496
   34PEO   H0A823334   4.518   0.586   1.093 -0.4914 -0.2159  0.1924
   34PEO   O0A923335   4.377   0.660   1.233 -0.9357  0.2718 -0.0373
   34PEO   H0AA23336   4.283   0.673   1.035 -0.9876  0.5673 -0.6518
   34PEO   H0AB23337   4.296   0.818   1.132  1.0049 -0.5129  2.4116
   34PEO   C0AC23338   4.278   0.710   1.139 -0.2001 -0.5379 -0.2015
   34PEO   C0AD23339   4.139   0.702   1.199 -0.0508  0.8751  0.4890
   34PEO   H0AE23340   4.077   0.753   1.124  1.8207  0.4638 -1.4723
   34PEO   H0AF23341   4.111   0.598   1.220  1.7754 -0.1886 -1.8042
   34PEO   O0B023342   4.137   0.770   1.323 -1.2546  0.4396  0.3864
   34PEO   H0B123343   4.114   0.977   1.268 -0.3722 -0.9581  0.4144
   34PEO   H0B223344   4.277   0.918   1.313  0.0282 -2.4487 -0.4339
   34PEO   C0B323345   4.170   0.912   1.337  0.0867 -0.6167  0.3682
   34PEO   C0B423346   4.126   0.955   1.477 -0.2589 -0.5436 -0.3239
   34PEO   H0B523347   4.120   1.065   1.479 -2.2646 -0.6366  0.7239
   34PEO   H0B623348   4.028   0.913   1.501 -1.6311  1.0164 -2.8018
   34PEO   O0B723349   4.225   0.916   1.569 -0.4788 -0.8621  0.0946
   34PEO   H0B823350   4.216   0.840   1.773 -1.4483 -0.5226  0.0432
   34PEO   H0B923351   4.090   0.959   1.723  0.7056  1.4163  0.3598
   34PEO   C0BA23352   4.195   0.927   1.710  0.0550 -0.5074 -0.4747
   34PEO   C0BB23353   4.264   1.057   1.758 -0.6250 -0.5061  0.1194
   34PEO   H0BC23354   4.197   1.103   1.831 -1.9545  0.2205 -1.5203
   34PEO   H0BD23355   4.358   1.033   1.811  0.5117 -0.4806 -1.7901
   34PEO   O0BE23356   4.278   1.153   1.649 -0.2507 -0.5962 -0.5190
   34PEO   H0BF23357   4.474   1.208   1.647  0.8121  1.8956 -0.1807
   34PEO   H0C023358   4.377   1.293   1.773  0.8078 -0.9944  0.4955
   34PEO   C0C123359   4.376   1.252   1.671  0.3757  1.0437 -0.3914
   34PEO   C0C223360   4.352   1.373   1.575  0.3908 -0.1856 -0.2816
   34PEO   H0C323361   4.440   1.431   1.545  0.2755 -0.9547 -2.3103
   34PEO   H0C423362   4.323   1.334   1.476  1.5390 -3.7368  0.6044
   34PEO   O0C523363   4.251   1.457   1.627 -0.0919 -0.1821 -0.3114
   34PEO   H0C623364   4.219   1.587   1.465 -0.8883  0.9419 -0.4011
   34PEO   H0C723365   4.321   1.642   1.605  0.0059 -0.5808  0.9847
   34PEO   C0C823366   4.230   1.589   1.575 -0.0211  0.2509 -0.4625
   34PEO   C0C923367   4.102   1.652   1.638 -0.5887  0.6164  0.9202
   34PEO   H0CA23368   4.077   1.742   1.581 -1.6931 -1.6795 -2.5568
   34PEO   H0CB23369   4.017   1.583   1.624 -1.7679  1.5319  3.0175
   34PEO   O0CC23370   4.123   1.689   1.771  0.0629 -0.3423  0.1635
   34PEO   H0CD23371   3.962   1.619   1.898  0.0562  1.0815  1.9312
   34PEO   H0CE23372   3.914   1.735   1.783 -0.4448  0.5924  0.3559
   34PEO   C0CF23373   3.997   1.711   1.849 -0.2238  0.1939 -0.0637
   34PEO   C0D023374   4.018   1.827   1.953  0.2432 -0.1192 -0.0636
   34PEO   H0D123375   3.918   1.851   1.991  0.4124 -0.0251  0.3170
   34PEO   H0D223376   4.084   1.797   2.036 -0.2650  1.6487  1.0223
   34PEO   O0D323377   4.060   1.941   1.877 -0.1113  0.4579 -0.1628
   34PEO   H0D423378   4.055   2.080   2.021  1.6424 -0.2333 -0.5074
   34PEO   H0D523379   3.901   2.080   1.943  0.0688 -0.1227  2.1498
   34PEO   C0D623380   4.008   2.068   1.922 -0.1384  0.9298  0.1526
   34PEO   C0D723381   4.047   2.184   1.833 -0.7624  0.8975 -0.4694
   34PEO   H0D823382   4.016   2.274   1.888  0.0274  0.6207  0.4561
   34PEO   H0D923383   4.155   2.177   1.813 -0.7159  1.1878 -0.3295
   34PEO   O0DA23384   3.966   2.168   1.718 -0.0230  0.4935 -0.2941
   34PEO   H0DB23385   4.116   2.193   1.563 -0.9601  0.4550 -0.2457
   34PEO   H0DC23386   4.044   2.345   1.627 -0.5608  0.6804  0.3753
   34PEO   C0DD23387   4.025   2.238   1.606 -0.4491  0.5976  0.6943
   34PEO   C0DE23388   3.920   2.251   1.490 -0.3200  0.4862  0.0214
   34PEO   H0DF23389   3.965   2.284   1.395 -0.3397 -0.8737 -0.4797
   34PEO   H0E023390   3.872   2.153   1.476  4.2922 -1.7777 -2.1194
   34PEO   O0E123391   3.843   2.367   1.531  0.1475  0.1021  0.4218
   34PEO   H0E223392   3.686   2.315   1.402  0.5403 -0.5189  2.1508
   34PEO   H0E323393   3.808   2.432   1.350  0.4340 -2.5126 -0.1010
   34PEO   C0E423394   3.747   2.401   1.435  0.2099  0.2515  0.8577
   34PEO   C0E523395   3.658   2.514   1.482  0.1285 -0.0004  0.0510
   34PEO   H0E623396   3.577   2.541   1.412  0.6837  0.0369 -0.5914
   34PEO   H0E723397   3.597   2.475   1.564  0.8695  1.9957  1.6252
   34PEO   O0E823398   3.725   2.638   1.521  0.1038 -0.0379 -0.3513
   34PEO   H0E923399   3.563   2.758   1.520 -1.2358 -3.5437 -0.5771
   34PEO   H0EA23400   3.730   2.822   1.578  1.4554 -1.4572 -2.3987
   34PEO   C0EB23401   3.654   2.744   1.581 -0.5885  0.4707 -0.3038
   34PEO   C0EC23402   3.605   2.715   1.721  0.2158 -0.4314 -0.1815
   34PEO   H0ED23403   3.685   2.690   1.792  1.1845  0.4589 -0.9482
   34PEO   H0EE23404   3.565   2.812   1.753 -1.5145 -0.8730 -0.8776
   34PEO   O0EF23405   3.494   2.621   1.720  0.4569 -0.0744  0.1733
   34PEO   H0F023406   3.341   2.654   1.855 -0.8395  0.4048 -2.5104
   34PEO   H0F123407   3.497   2.588   1.927 -1.0708  2.1270  0.1779
   34PEO   C0F223408   3.426   2.585   1.843 -0.6973  0.1059 -0.1102
   34PEO   C0F323409   3.380   2.437   1.837 -0.4719 -0.2875  0.2224
   34PEO   H0F423410   3.458   2.368   1.801 -1.4843 -0.9780 -0.7209
   34PEO   H0F523411   3.352   2.416   1.942  1.7782 -0.2968  0.8691
   34PEO   O0F623412   3.263   2.439   1.748 -0.2833 -0.3896  0.5030
   34PEO   H0F723413   3.104   2.338   1.808 -0.3447 -0.6646 -0.7914
   34PEO   H0F823414   3.259   2.239   1.788  1.4540 -0.2804 -1.8805
   34PEO   C0F923415   3.194   2.319   1.748  0.0260 -0.5698 -0.2698
   34PEO   C0FA23416   3.163   2.276   1.608 -0.6267 -0.0508 -0.1669
   34PEO   H0FB23417   3.067   2.221   1.609 -0.7356 -0.0514 -2.6968
   34PEO   H0FC23418   3.137   2.369   1.555  1.1440  1.4946  1.5754
   34PEO   O0FD23419   3.266   2.184   1.562 -0.6628  0.9095 -0.4787
   34PEO   H0FE23420   3.442   2.266   1.641 -1.0111  0.8350 -0.1593
   34PEO   H0FF23421   3.398   2.342   1.495  3.6286  0.6802  1.3827
   34PEO   C10023422   3.398   2.243   1.543 -0.0774 -0.3125 -0.3372
   34PEO   C10123423   3.490   2.135   1.464  0.4444  0.0372  0.1456
   34PEO   H10223424   3.590   2.136   1.512  0.5567 -0.4124 -0.0740
   34PEO   H10323425   3.443   2.036   1.474  1.0428 -0.0609  3.0379
   34PEO   O10423426   3.505   2.179   1.325  0.3728 -0.2763 -0.7814
   34PEO   H10523427   3.298   2.161   1.310  1.4320 -0.1243  1.3419
   34PEO   H10623428   3.368   2.115   1.165  1.3325 -0.3295 -0.1279
   34PEO   C10723429   3.382   2.190   1.244  0.4006 -0.2219 -0.0548
   34PEO   C10823430   3.373   2.335   1.195  0.6534 -0.7623  0.0351
   34PEO   H10923431   3.266   2.356   1.201  0.5391 -0.7746 -1.5400
   34PEO   H10A23432   3.429   2.393   1.270 -0.8076 -0.6107  1.0530
   34PEO   O10B23433   3.432   2.352   1.074  0.2963 -0.1988 -0.3865
   34PEO   H10C23434   3.516   2.543   1.132  0.5453  1.8952 -0.6929
   34PEO   H10D23435   3.360   2.549   1.054 -1.2029 -1.7253 -1.0637
   34PEO   C10E23436   3.457   2.497   1.051  0.1177  0.4905  0.3950
   34PEO   C10F23437   3.541   2.499   0.923 -0.1067 -0.2282 -0.2905
   34PEO   H11023438   3.483   2.449   0.844  0.7509 -0.5432 -0.7335
   34PEO   H11123439   3.560   2.601   0.886 -0.6063  0.6704  1.7815
   34PEO   O11223440   3.663   2.433   0.968 -0.2156  0.0835  0.4085
   34PEO   H11323441   3.751   2.442   0.785 -3.9918  0.3949  0.4649
   34PEO   H11423442   3.681   2.282   0.832 -0.0597 -0.9024  0.8590
   34PEO   C11523443   3.741   2.368   0.866  0.0082 -0.6790  0.1743
   34PEO   C11623444   3.874   2.321   0.926 -0.5672 -0.9866  0.0188
   34PEO   H11723445   3.929   2.284   0.837 -0.3701  1.0494 -0.7605
   34PEO   H11823446   3.920   2.403   0.983 -2.1722 -0.5061  0.6713
   34PEO   O11923447   3.861   2.211   1.021 -0.4935  0.2087 -0.2183
   34PEO   H11A23448   3.661   2.149   1.037  0.3530  2.4472 -2.3713
   34PEO   H11B23449   3.712   2.266   1.165  0.5146 -0.7930  2.0807
   34PEO   C11C23450   3.743   2.181   1.103 -0.5717  0.2817 -0.0223
   34PEO   C11D23451   3.785   2.065   1.202 -0.4495  0.1610  0.1441
   34PEO   H11E23452   3.892   2.085   1.214 -0.3167  0.7035 -1.7148
   34PEO   H11F23453   3.720   2.058   1.291  1.7714 -0.7418  1.7933
   34PEO   O12023454   3.768   1.945   1.131  0.7145  0.4850 -0.1595
   34PEO   H12123455   3.922   1.832   1.220  0.4853 -2.8741 -1.4332
   34PEO   H12223456   3.795   1.747   1.125 -3.3232  0.4629  1.0353
   34PEO   C12323457   3.814   1.828   1.197 -0.1730  0.5044  0.2935
   34PEO   C12423458   3.745   1.787   1.328 -0.1437  0.3560 -0.6615
   34PEO   H12523459   3.644   1.829   1.331 -1.6143 -2.9068  0.2843
   34PEO   H12623460   3.740   1.677   1.331  0.5500  0.3460  0.4885
   34PEO   O12723461   3.824   1.845   1.438  0.2208 -0.6993  0.1193
   34PEO   H12823462   3.682   1.925   1.562  0.2094 -0.5040  0.9501
   34PEO   H12923463   3.829   1.887   1.641 -1.6939 -2.3520  3.3403
   34PEO   C12A23464   3.761   1.848   1.563  0.6711 -0.0707 -0.1634
   34PEO   C12B23465   3.717   1.706   1.615  0.1090  0.3820  0.3082
   34PEO   H12C23466   3.808   1.644   1.608 -0.3353 -0.2088 -0.4671
   34PEO   H12D23467   3.682   1.697   1.719  0.1380 -0.9714  0.2211
   34PEO   O12E23468   3.612   1.647   1.537 -0.1645 -0.1744  0.0104
   34PEO   H12F23469   3.495   1.488   1.639  0.1954 -2.5554  1.0603
   34PEO   H13023470   3.654   1.439   1.585  0.2204  0.4262 -0.8463
   34PEO   C13123471   3.570   1.505   1.561 -0.5948  0.0472  0.7748
   34PEO   C13223472   3.503   1.461   1.425  0.2680 -0.5007  0.5826
   34PEO   H13323473   3.501   1.533   1.342  2.5489  1.0182  1.7447
   34PEO   H13423474   3.566   1.377   1.393  0.7926 -0.2452  0.9235
   34PEO   O13523475   3.370   1.419   1.454  0.2529 -0.0426  0.1549
   34PEO   H13623476   3.266   1.488   1.289 -0.2328  0.6892  1.6644
   34PEO   H13723477   3.182   1.376   1.401 -0.7911  0.6336 -1.9258
   34PEO   C13823478   3.276   1.395   1.348  0.4682 -0.4807 -0.2195
   34PEO   C13923479   3.321   1.278   1.261  0.2600 -0.4618 -0.0422
   34PEO   H13A23480   3.240   1.258   1.190 -1.4598 -1.3222  2.0698
   34PEO   H13B23481   3.404   1.319   1.200  1.2831 -1.1573  0.8423
   34PEO   O13C23482   3.348   1.160   1.337 -0.6195 -0.1743  0.2643
   34PEO   H13D23483   3.453   1.070   1.187 -0.5785  0.9130 -0.4129
   34PEO   H13E23484   3.279   1.043   1.180  0.6202  2.3438 -0.1915
   34PEO   C13F23485   3.365   1.045   1.248  0.2618 -0.1081  0.4092
   34PEO   C14023486   3.389   0.912   1.316 -0.3290  0.1362  0.0052
   34PEO   H14123487   3.437   0.845   1.243  2.0768  1.3560  0.3539
   34PEO   H14223488   3.457   0.934   1.400 -0.6169 -0.6482  0.4450
   34PEO   O14323489   3.275   0.852   1.368 -0.4916  0.2954  0.4310
   34PEO   H14423490   3.120   0.888   1.507 -0.7120  1.5149 -1.5817
   34PEO   H14523491   3.243   1.010   1.521  0.0418 -0.5513  0.2860
   34PEO   C14623492   3.229   0.904   1.498 -0.3367 -0.3076 -0.6726
   34PEO   C14723493   3.313   0.832   1.609 -0.0543  0.6556 -0.0977
   34PEO   H14823494   3.421   0.816   1.590 -0.5624 -0.5375 -2.2969
   34PEO   H14923495   3.295   0.896   1.697  2.0362 -0.5721  1.3195
   34PEO   O14A23496   3.253   0.706   1.639 -0.7010  0.8457 -0.3947
   34PEO   H14B23497   3.080   0.797   1.704  3.6672  1.7544 -1.8145
   34PEO   H14C23498   3.182   0.747   1.830 -0.7732 -1.7705  0.6695
   34PEO   C14D23499   3.142   0.712   1.734  0.2495 -0.3899 -0.3066
   34PEO   C14E23500   3.068   0.583   1.740 -0.5965  0.0319  0.6954
   34PEO   H14F23501   2.993   0.607   1.817 -1.0521 -1.0965  0.6270
   34PEO   H15023502   3.026   0.542   1.647  0.4464 -1.2982  0.7756
   34PEO   O15123503   3.143   0.478   1.788  0.3459 -0.9193 -0.3054
   34PEO   H15223504   2.981   0.388   1.877 -0.0971  0.8021 -1.6975
   34PEO   H15323505   3.132   0.290   1.889 -0.7021 -1.0458 -1.0372
   34PEO   C15423506   3.073   0.358   1.826  0.2010  0.0364 -0.7400
   34PEO   C15523507   3.022   0.285   1.704 -0.0335  0.2022 -0.1219
   34PEO   H15623508   2.929   0.232   1.728  0.2990 -0.8632 -1.0876
   34PEO   H15723509   3.003   0.352   1.618 -2.7341 -0.6578 -0.2972
   34PEO   O15823510   3.122   0.200   1.669 -0.2128  0.4654  0.0448
   34PEO   H15923511   3.307   0.307   1.694  0.6587 -1.3394 -0.8679
   34PEO   H15A23512   3.213   0.345   1.547  1.3808  0.2803  0.4259
   34PEO   C15B23513   3.241   0.264   1.617  0.2141 -1.0866 -0.6333
   34PEO   C15C23514   3.317   0.166   1.526  0.0145 -0.3902 -0.6372
   34PEO   H15D23515   3.243   0.124   1.457 -0.4075  1.8613 -1.6586
   34PEO   H15E23516   3.401   0.215   1.475  1.2549  0.1485  1.7738
   34PEO   O15F23517   3.370   0.060   1.604  0.4182  0.0694 -0.3441
   34PEO   H16023518   3.504   0.002   1.444  0.2879 -2.8382 -1.1467
   34PEO   H16123519   3.356  -0.098   1.461 -2.6300  2.0190  0.3101
   34PEO   C16223520   3.432  -0.040   1.515 -0.2364 -0.4484 -0.1777
   34PEO   C16323521   3.508  -0.130   1.601  0.2403 -0.2623 -0.9036
   34PEO   H16423522   3.460  -0.151   1.698 -0.0424 -1.9663 -1.3699
   34PEO   H16523523   3.519  -0.221   1.540  0.5711 -0.5352 -0.4480
   34PEO   O16623524   3.644  -0.076   1.622 -0.5527  0.4994  0.2723
   34PEO   H16723525   3.679  -0.067   1.406  2.3139 -1.2102 -1.4339
   34PEO   H16823526   3.768  -0.194   1.503  3.3266  0.2922  4.9978
   34PEO   C16923527   3.729  -0.091   1.501  0.3534 -0.5639 -0.1642
   34PEO   C16A23528   3.842   0.010   1.517 -0.5954 -0.0805 -0.1782
   34PEO   H16B23529   3.902   0.026   1.426  0.4050  0.5631  0.5723
   34PEO   H16C23530   3.801   0.109   1.539  0.6337  0.3225  0.3586
   34PEO   O16D23531   3.939  -0.032   1.615 -0.4372  0.0739  0.4097
   34PEO   H16E23532   4.093   0.091   1.520 -1.1558  1.8789  0.5638
   34PEO   H16F23533   4.157  -0.011   1.636  0.8815 -1.7468 -3.9070
   34PEO   C17023534   4.065   0.044   1.615  0.9772  0.5017  0.5845
   34PEO   C17123535   4.046   0.170   1.704  0.2020  0.7923 -0.4217
   34PEO   H17223536   4.131   0.240   1.706  0.8052  0.0712 -0.0259
   34PEO   H17323537   3.965   0.229   1.659 -0.9501 -0.5733 -0.2054
   34PEO   O17423538   4.026   0.132   1.840  0.5328 -0.3952  0.5195
   34PEO   H17523539   3.825   0.111   1.822  0.4543  0.7488 -1.2809
   34PEO   H17623540   3.878   0.273   1.887 -0.0095  0.7811  0.8385
   34PEO   C17723541   3.893   0.164   1.890 -0.1730  0.7059 -0.6148
   34PEO   C17823542   3.891   0.122   2.039  0.0348 -0.1465 -0.5844
   34PEO   H17923543   3.987   0.158   2.080  0.1575 -1.4780  0.3661
   34PEO   H17A23544   3.812   0.171   2.098 -0.6259 -2.3811  0.5013
   34PEO   O17B23545   3.893  -0.021   2.057  0.1287 -0.4515 -0.1371
   34PEO   H17C23546   3.734  -0.094   2.166 -1.1321 -0.7090 -0.8643
   34PEO   H17D23547   3.792  -0.193   2.037  0.5143  0.5334 -2.5368
   34PEO   C17E23548   3.775  -0.087   2.064  0.5037  0.0012 -0.2056
   34PEO   C17F23549   3.663  -0.044   1.962  0.0836 -0.7584  0.8261
   34PEO   H18023550   3.709  -0.053   1.863  2.5654 -0.2286  1.8278
   34PEO   H18123551   3.587  -0.123   1.960 -0.2125 -0.5130  1.7748
   34PEO   O18223552   3.614   0.095   1.976  0.1307  0.2086 -0.7175
   34PEO   H18323553   3.426   0.076   1.864 -0.6486  0.1989 -0.6770
   34PEO   H18423554   3.562   0.150   1.778  0.8430 -1.3331 -0.3669
   34PEO   C18523555   3.515   0.140   1.877 -0.2665 -0.3125 -0.7616
   34PEO   C18623556   3.477   0.282   1.931 -0.7542  0.2110 -0.2442
   34PEO   H18723557   3.554   0.332   1.991  0.9853  0.7826 -2.7794
   34PEO   H18823558   3.456   0.346   1.844  1.1771  0.3039 -0.7008
   34PEO   O18923559   3.356   0.272   2.013 -0.1349  0.1916 -0.2908
   34PEO   H18A23560   3.291   0.468   2.020  1.0669 -0.7087 -1.1499
   34PEO   H18B23561   3.411   0.427   2.145  1.6975 -1.0281 -1.1164
   34PEO   C18C23562   3.323   0.390   2.089  0.5478  0.0156 -0.0641
   34PEO   C18D23563   3.199   0.358   2.178  0.4686 -0.3459  1.0721
   34PEO   H18E23564   3.133   0.442   2.205 -0.0069 -0.6325  0.8122
   34PEO   H18F23565   3.134   0.290   2.121  0.8661  1.2119 -1.3856
   34PEO   O19023566   3.262   0.277   2.291 -0.1605 -0.6446  0.3486
   34PEO   H19123567   3.307   0.105   2.172  1.8357 -1.0030  1.1115
   34PEO   H19223568   3.156   0.092   2.270  0.0064 -1.0350 -1.7046
   34PEO   C19323569   3.257   0.135   2.265 -0.1702 -0.3765 -0.0903
   34PEO   C19423570   3.334   0.062   2.376 -0.0608  0.2010 -0.0253
   34PEO   H19523571   3.296   0.104   2.470 -0.0116  0.6743 -0.2138
   34PEO   H19623572   3.289  -0.038   2.372 -1.0650  0.3700  3.4050
   34PEO   O19723573   3.472   0.054   2.374 -0.5339 -0.0223  0.0279
   34PEO   H19823574   3.495   0.227   2.476  1.4632 -1.6351  1.2633
   34PEO   H19923575   3.497   0.238   2.297  1.2150  0.3817  0.1386
   34PEO   C19A23576   3.532   0.180   2.384  0.0385 -0.4878  0.0617
   34PEO   C19B23577   3.688   0.179   2.363  0.5668 -0.3774  1.3760
   34PEO   H19C23578   3.693   0.112   2.275 -0.0275 -0.7934  1.6489
   34PEO   H19D23579   3.730   0.274   2.326  1.0137 -0.2395  2.2242
   34PEO   O19E23580   3.761   0.126   2.476  0.8496 -0.0572  0.5870
   34PEO   H19F23581   3.887   0.038   2.335 -2.9092  1.4171 -0.3004
   34PEO   H1A023582   3.914  -0.013   2.496  0.1239  0.5565  0.7136
   34PEO   C1A123583   3.889   0.077   2.438 -0.0845  0.1856  0.2254
   34PEO   C1A223584   3.997   0.187   2.437 -0.9562 -0.0187 -0.0810
   34PEO   H1A323585   4.019   0.223   2.539 -2.4092 -1.8372  0.9299
   34PEO   H1A423586   4.088   0.143   2.394 -1.4273 -0.2736 -0.8418
   34PEO   O1A523587   3.956   0.296   2.357 -0.4585 -0.0605  0.0464
   34PEO   H1A623588   4.120   0.392   2.448 -0.1715 -2.3046 -0.7308
   34PEO   H1A723589   4.018   0.508   2.360  1.6733  0.2691  0.2551
   34PEO   C1A823590   4.057   0.405   2.359  0.2503 -0.2960 -0.7822
   34PEO   C1A923591   4.145   0.399   2.230 -0.6677  0.4145  0.6405
   34PEO   H1AA23592   4.244   0.447   2.232  0.7973 -2.2774 -1.0988
   34PEO   H1AB23593   4.157   0.291   2.213 -0.4051  0.7872 -2.1018
   34PEO   O1AC23594   4.065   0.460   2.133  0.3728  0.9468 -0.0095
   34PEO   H1AD23595   4.021   0.451   1.937  0.9387  0.6319 -1.2951
   34PEO   H1AE23596   4.180   0.378   1.985 -0.6432 -0.2876  1.5453
   34PEO   C1AF23597   4.112   0.462   1.999 -0.2821  0.1752  0.6415
   34PEO   C1B023598   4.186   0.598   1.973  0.5492  0.5093  0.7108
   34PEO   H1B123599   4.151   0.643   1.879  1.5535  1.8805  0.9678
   34PEO   H1B223600   4.141   0.670   2.043 -1.9381  0.0016 -0.2714
   34PEO   O1B323601   4.327   0.583   1.988  0.5409 -0.2048  0.5506
   34PEO   H1B423602   4.366   0.759   2.097  2.4640 -0.8666  1.3115
   34PEO   H1B523603   4.363   0.781   1.919 -2.0884 -1.4100 -0.2190
   34PEO   C1B623604   4.394   0.714   2.001  0.2167  0.0126  0.1659
   34PEO   C1B723605   4.544   0.693   1.993 -0.5152 -0.7610  0.2191
   34PEO   H1B823606   4.596   0.783   2.031  0.1505 -0.3669 -1.5390
   34PEO   H1B923607   4.561   0.614   2.068 -0.0412  1.2106  2.3241
   34PEO   O1BA23608   4.591   0.650   1.864  0.0239 -0.6922  0.1976
   34PEO   H1BB23609   4.739   0.523   1.950 -0.3190 -0.0141 -0.1371
   34PEO   H1BC23610   4.791   0.677   1.921  1.1956 -0.5234 -0.3638
   34PEO   C1BD23611   4.728   0.600   1.873  0.2767  0.0733 -0.1369
   34PEO   C1BE23612   4.771   0.560   1.730  0.4029  0.1811 -0.1791
   34PEO   H1BF23613   4.770   0.649   1.666  1.2277  0.3279  0.0071
   34PEO   H1C023614   4.870   0.512   1.734  0.8458  1.1671  2.1696
   34PEO   O1C123615   4.689   0.453   1.680  0.5079  1.2769 -0.2957
   34PEO   H1C223616   4.846   0.379   1.557  0.8097 -0.2580  1.5069
   34PEO   H1C323617   4.744   0.494   1.487 -1.6093  0.2085 -0.0357
   34PEO   C1C423618   4.740   0.409   1.556  0.9476  0.2198  0.2092
   34PEO   C1C523619   4.663   0.288   1.503  0.2022  0.4907  0.1044
   34PEO   H1C623620   4.562   0.318   1.471  0.1288 -0.4822 -0.6311
   34PEO   H1C723621   4.715   0.246   1.416  0.0771 -1.2945  0.8501
   34PEO   O1C823622   4.654   0.192   1.612 -0.3753 -0.0013 -0.3848
   34PEO   H1C923623   4.609   0.000   1.664  0.8034 -0.5409 -0.1655
   34PEO   H1CA23624   4.661   0.026   1.491 -1.1254 -1.9180 -0.0948
   34PEO   C1CB23625   4.602   0.065   1.575  0.4374 -0.0685  0.2043
   34PEO   C1CC23626   4.452   0.071   1.524  0.0792  0.3651 -1.1279
   34PEO   H1CD23627   4.393  -0.016   1.557 -1.5980  0.9793 -2.3201
   34PEO   H1CE23628   4.406   0.158   1.574  0.4587 -0.4944  0.8420
   34PEO   O1CF23629   4.441   0.072   1.376  0.3479  0.2712  0.0051
   34PEO   H1D023630   4.229   0.089   1.357 -2.6866  2.8418 -0.7660
   34PEO   H1D123631   4.334   0.103   1.212 -1.3318  0.1865 -0.1332
   34PEO   C1D223632   4.326   0.124   1.320 -0.8294 -0.8112  0.1123
   34PEO   C1D323633   4.322   0.275   1.322 -0.2578 -0.0906 -0.0327
   34PEO   H1D423634   4.418   0.315   1.286  0.9846 -0.3969  2.6599
   34PEO   H1D523635   4.240   0.328   1.273 -0.7076 -0.1263  0.6671
   34PEO   O1D623636   4.292   0.315   1.456  0.2301  0.0675 -0.2441
   34PEO   H1D723637   4.241   0.517   1.403  0.2275  4.0368  3.1455
   34PEO   H1D823638   4.394   0.498   1.466  1.0087 -2.4119 -0.7692
   34PEO   C1D923639   4.293   0.456   1.478  0.0040  0.0817  0.3443
   34PEO   C1DA23640   4.238   0.485   1.619 -0.1825  0.5675  0.0020
   34PEO   H1DB23641   4.289   0.418   1.689 -0.4046 -0.5441 -0.8786
   34PEO   H1DC23642   4.274   0.588   1.637  1.6176  0.5714 -2.9577
   34PEO   O1DD23643   4.094   0.480   1.625 -0.5055  0.2247 -0.0396
   34PEO   H1DE23644   4.016   0.536   1.438 -0.8974 -1.9604  1.0961
   34PEO   H1DF23645   4.064   0.675   1.532 -1.1195  1.1078 -3.4396
   34PEO   C1E023646   4.019   0.575   1.540 -0.2772  0.9100  0.0791
   34PEO   C1E123647   3.873   0.575   1.584 -0.2722  0.4643  0.1605
   34PEO   H1E223648   3.859   0.583   1.693 -2.6406  0.1014 -0.0623
   34PEO   H1E323649   3.810   0.648   1.532  0.5864 -0.0311 -1.6438
   34PEO   O1E423650   3.817   0.445   1.538  0.4786  0.1222 -0.3843
   34PEO   H1E523651   3.731   0.355   1.704 -1.0081  1.0324  0.4166
   34PEO   H1E623652   3.675   0.282   1.553 -0.3231  0.7611 -1.9110
   34PEO   C1E723653   3.705   0.377   1.599  0.6764 -0.2782 -0.3317
   34PEO   C1E823654   3.572   0.462   1.588  0.1516 -0.6131  0.3577
   34PEO   H1E923655   3.504   0.423   1.666  0.8551 -2.5373  0.0657
   34PEO   H1EA23656   3.592   0.566   1.617 -0.4526 -0.0741 -1.0590
   34PEO   O1EB23657   3.526   0.457   1.453  0.0306  0.0838 -0.3550
   34PEO   H1EC23658   3.442   0.643   1.419 -2.6193  0.8190 -0.7803
   34PEO   H1ED23659   3.315   0.526   1.465 -0.9457 -0.0069  0.2543
   34PEO   C1EE23660   3.407   0.540   1.408 -1.2426  0.2744 -0.1662
   34PEO   C1EF23661   3.393   0.519   1.257 -0.1700  0.0009 -0.0022
   34PEO   H1F023662   3.351   0.612   1.216  1.3981  1.0384  0.6501
   34PEO   H1F123663   3.492   0.512   1.209  0.1982  0.4102  0.6853
   34PEO   O1F223664   3.308   0.405   1.231 -0.5170 -0.4372 -0.2232
   34PEO   H1F323665   3.365   0.384   1.034  1.6425 -0.1585  2.4851
   34PEO   H1F423666   3.196   0.435   1.056 -0.4926  0.3878  0.8317
   34PEO   C1F523667   3.276   0.372   1.098 -0.0008  0.7685  0.4940
   34PEO   C1F623668   3.217   0.221   1.095  0.1224 -0.0850 -0.1267
   34PEO   H1F723669   3.252   0.177   1.000  0.6510  0.4460 -0.1848
   34PEO   H1F823670   3.263   0.169   1.180 -0.2419  0.9302  0.7105
   34PEO   O1F923671   3.075   0.208   1.114  0.3518 -0.1455 -0.0013
   34PEO   H1FA23672   3.035   0.359   1.241 -0.5656 -0.0751 -1.9996
   34PEO   H1FB23673   3.086   0.201   1.318 -0.0856 -0.5538  0.2093
   34PEO   C1FC23674   3.025   0.249   1.240 -0.3075 -0.1833  0.6076
   34PEO   C1FD23675   2.884   0.204   1.264  0.2170  0.0159 -0.1631
   34PEO   H1FE23676   2.878   0.094   1.265  0.7420 -0.0163 -0.2235
   34PEO   H1FF23677   2.856   0.238   1.364  1.4705 -0.2353  0.2875
   34PEO   O20023678   2.799   0.264   1.160 -0.0650  0.0213  1.0112
   34PEO   H20123679   2.620   0.341   1.106  1.2116 -0.6384 -0.0607
   34PEO   H20223680   2.649   0.380   1.264 -2.0845  0.0777 -0.3876
   34PEO   C20323681   2.665   0.295   1.196 -0.2852 -0.5791  0.7565
   34PEO   C20423682   2.577   0.177   1.239 -0.5188  0.2907  0.5870
   34PEO   H20523683   2.476   0.218   1.253 -0.3368  1.9781 -2.2944
   34PEO   H20623684   2.574   0.111   1.151  1.1250  1.4373 -0.3851
   34PEO   O20723685   2.632   0.123   1.360  0.3859 -0.0665 -0.3737
   34PEO   H20823686   2.569  -0.073   1.381 -0.0190  1.0526 -2.1178
   34PEO   H20923687   2.452   0.050   1.425  0.4239  0.7230  1.1350
   34PEO   C20A23688   2.559   0.024   1.431  0.1816 -0.3977  0.9247
   34PEO   C20B23689   2.602   0.007   1.574  0.2296  0.7334  0.2048
   34PEO   H20C23690   2.553   0.087   1.632  1.3525  1.9260 -0.4375
   34PEO   H20D23691   2.567  -0.089   1.616 -0.2855  0.3238 -1.1189
   34PEO   O20E23692   2.742   0.020   1.600  0.0576  0.4370  0.6615
   34PEO   H20F23693   2.820  -0.117   1.458 -1.1033  1.7188 -0.5917
   34PEO   H21023694   2.780  -0.187   1.614  0.0453 -0.7292 -1.6165
   34PEO   C21123695   2.816  -0.095   1.565 -0.0515  0.1008 -0.1889
   34PEO   C21223696   2.977  -0.073   1.595 -0.4678  0.3853  0.6581
   34PEO   H21323697   3.040  -0.140   1.535  0.7327  1.8117  0.2496
   34PEO   H21423698   3.009   0.026   1.557  1.0394  0.0851  1.0854
   34PEO   O21523699   3.002  -0.109   1.734  0.0881  0.2814  0.0741
   34PEO   H21623700   3.202  -0.052   1.763  0.0564 -0.7108  0.6532
   34PEO   H21723701   3.186  -0.207   1.697  1.7523  0.7233 -1.4779
   34PEO   C21823702   3.138  -0.141   1.771  0.6253 -1.2287 -0.3983
   34PEO   C21923703   3.151  -0.170   1.918 -0.2569 -0.2054  0.5423
   34PEO   H21A23704   3.255  -0.193   1.947 -0.3245  0.4110  1.3373
   34PEO   H21B23705   3.127  -0.075   1.969  2.4160  0.9297 -0.0857
   34PEO   O21C23706   3.059  -0.270   1.957  0.1324 -0.0969  0.3889
   34PEO   H21D23707   3.014  -0.197   2.143 -1.6287  0.8488 -3.0027
   34PEO   H21E23708   3.146  -0.322   2.142  1.3527  1.4000 -1.9226
   34PEO   C21F23709   3.047  -0.294   2.102  0.1590  0.1025 -0.0590
   34PEO   C22023710   2.953  -0.403   2.124 -0.3879 -0.4074 -0.6372
   34PEO   H22123711   2.980  -0.496   2.073  1.8764  0.1963 -0.6402
   34PEO   H22223712   2.955  -0.424   2.232 -2.8481  0.1835 -0.4158
   34PEO   O22323713   2.815  -0.374   2.094 -0.0729  0.0571 -0.0439
   34PEO   H22423714   2.788  -0.516   1.946  1.4961 -0.0769  1.5605
   34PEO   H22523715   2.770  -0.348   1.886 -3.2430 -0.3076 -0.3548
   34PEO   C22623716   2.754  -0.415   1.972 -0.2082 -0.2840  0.3299
   34PEO   C22723717   2.606  -0.401   1.990  0.0310 -0.2635  0.6226
   34PEO   H22823718   2.547  -0.437   1.904 -0.0127 -1.8553  1.2884
   34PEO   H22923719   2.583  -0.456   2.082 -0.2386  2.0724  2.0287
   34PEO   O22A23720   2.577  -0.267   2.015 -0.1605 -0.0034 -0.6652
   34PEO   H22B23721   2.473  -0.216   1.848  0.1770  0.6353 -0.6218
   34PEO   H22C23722   2.641  -0.178   1.842 -1.8987 -1.5035 -0.8899
   34PEO   C22D23723   2.555  -0.177   1.911 -0.5449 -0.1975  0.8940
   34PEO   C22E23724   2.532  -0.031   1.966  0.0016  0.0607 -0.0650
   34PEO   H22F23725   2.442   0.014   1.921  0.4123 -0.6611 -1.6872
   34PEO   H23023726   2.502  -0.041   2.071 -1.4762  0.6320 -0.4004
   34PEO   O23123727   2.654   0.044   1.951  0.5272  0.2329 -0.3498
   34PEO   H23223728   2.811  -0.098   1.940 -0.7874  0.7974 -1.6147
   34PEO   H23323729   2.766  -0.057   2.100  1.0575 -0.9186 -0.1510
   34PEO   C23423730   2.777  -0.012   2.000 -0.2438 -0.1050  0.0426
   34PEO   C23523731   2.881   0.101   2.013 -0.1866  0.6268 -0.0547
   34PEO   H23623732   2.980   0.054   2.024 -1.4163 -1.8421  1.1596
   34PEO   H23723733   2.879   0.156   1.918  0.8338  0.5048 -0.1586
   34PEO   O23823734   2.857   0.184   2.129  0.5518  0.3337  0.3262
   34PEO   H23923735   2.653   0.205   2.165  2.8601 -3.0413  2.6126
   34PEO   H23A23736   2.727   0.299   2.024 -0.0640 -0.2483  0.0450
   34PEO   C23B23737   2.740   0.261   2.126 -0.1319  0.5104  0.3396
   34PEO   C23C23738   2.752   0.381   2.220  0.0418  0.6036 -0.1844
   34PEO   H23D23739   2.655   0.419   2.255 -0.0834  2.0124 -1.9450
   34PEO   H23E23740   2.807   0.353   2.311 -0.5514 -1.0767 -0.3163
   34PEO   O23F23741   2.817   0.499   2.164  0.5030 -0.5226  0.6395
   34PEO   H24023742   2.753   0.515   1.963  1.7313 -0.2670  0.4922
   34PEO   H24123743   2.819   0.661   2.028 -0.0024  0.2217 -1.2522
   34PEO   C24223744   2.754   0.576   2.054  0.7519  0.0915  0.2806
   34PEO   C24323745   2.611   0.614   2.097 -0.1746 -0.2618  0.0945
   34PEO   H24423746   2.558   0.673   2.020 -0.0608  2.3607  1.8723
   34PEO   H24523747   2.545   0.529   2.118  1.6720 -1.0725  3.1149
   34PEO   O24623748   2.626   0.689   2.216  1.0514  0.3100 -0.5287
   34PEO   H24723749   2.427   0.662   2.291  0.5567 -0.4697 -0.0563
   34PEO   H24823750   2.449   0.803   2.181 -2.4904  1.1674  2.4511
   34PEO   C24923751   2.497   0.739   2.256 -0.1583  0.4407  0.4608
   34PEO   C24A23752   2.519   0.850   2.359  0.4911 -0.2713 -0.0310
   34PEO   H24B23753   2.426   0.903   2.386  0.6436  1.9962 -3.3489
   34PEO   H24C23754   2.562   0.809   2.452 -0.1315 -0.4527  0.1870
   34PEO   O24D23755   2.599   0.948   2.298 -0.1002 -0.2361  0.4451
   34PEO   H24E23756   2.727   1.033   2.438 -0.7640 -2.4945  0.2452
   34PEO   H24F23757   2.554   1.091   2.452 -0.5176  0.4081 -2.1279
   34PEO   C25023758   2.635   1.062   2.384  0.4032 -0.3681 -0.7305
   34PEO   C25123759   2.657   1.185   2.290 -0.2042  0.1346 -0.3096
   34PEO   H25223760   2.568   1.198   2.226 -1.3077  0.8271  1.3188
   34PEO   H25323761   2.687   1.276   2.343 -2.3665  0.4350  0.4630
   34PEO   O25423762   2.771   1.156   2.210  0.4121 -0.2652 -0.2490
   34PEO   H25523763   2.978   1.152   2.189 -1.4458 -0.9459 -1.5208
   34PEO   H25623764   2.918   1.069   2.326 -1.3510 -0.3770  0.7844
   34PEO   C25723765   2.903   1.162   2.269  0.6210 -0.2329  0.4461
   34PEO   C25823766   2.935   1.300   2.335  0.6338 -0.4779 -0.1967
   34PEO   H25923767   3.044   1.310   2.322  0.6319 -0.3052 -0.0777
   34PEO   H25A23768   2.894   1.387   2.282  2.3022  1.1654  1.0685
   34PEO   O25B23769   2.900   1.303   2.473  0.7519 -0.3141  0.0574
   34PEO   H25C23770   2.952   1.498   2.496  1.8440 -1.9613 -0.9972
   34PEO   H25D23771   2.934   1.408   2.653 -0.2733 -1.2350  0.1205
   34PEO   C25E23772   2.894   1.424   2.552  0.3819 -0.1436  0.0159
   34PEO   C25F23773   2.749   1.486   2.562 -0.0389 -0.3169 -0.5375
   34PEO   H26023774   2.692   1.411   2.619  1.2886  0.9902  2.7774
   34PEO   H26123775   2.753   1.572   2.630  1.0773 -0.7840  0.0066
   34PEO   O26223776   2.697   1.535   2.440 -0.4721 -0.9385  0.3073
   34PEO   H26323777   2.501   1.548   2.501  0.3324  2.0897  0.4688
   34PEO   H26423778   2.555   1.389   2.428  0.4277  0.7102  0.8406
   34PEO   C26523779   2.557   1.499   2.420 -0.6083  0.7283  0.6028
   34PEO   C26623780   2.513   1.556   2.284 -0.4633  0.7712  0.4508
   34PEO   H26723781   2.409   1.536   2.252  0.6896 -1.7119 -2.2029
   34PEO   H26823782   2.533   1.664   2.286 -2.5528  1.1981  1.6459
   34PEO   O26923783   2.592   1.489   2.176 -0.6399  0.0702 -0.1457
   34PEO   H26A23784   2.651   1.626   2.034  0.6770 -0.6771  1.7331
   34PEO   H26B23785   2.485   1.547   2.011 -0.1690  0.4234 -0.7816
   34PEO   C26C23786   2.590   1.535   2.042 -0.5269 -0.0535  0.2972
   34PEO   C26D23787   2.661   1.429   1.957  0.6340  0.5227  0.0402
   34PEO   H26E23788   2.685   1.340   2.017  1.2352 -0.9490 -2.2579
   34PEO   H26F23789   2.588   1.398   1.881  1.3358  1.1208 -0.9053
   34PEO   O27023790   2.778   1.476   1.887  0.1432  0.5402  0.5535
   34PEO   H27123791   2.936   1.413   2.004 -1.8496 -0.7880 -0.8261
   34PEO   H27223792   2.853   1.558   2.064 -0.8213 -1.8438  0.3540
   34PEO   C27323793   2.892   1.509   1.974 -0.1366  0.1505 -0.4813
   34PEO   C27423794   2.988   1.604   1.904  0.1590  1.1628 -0.7034
   34PEO   H27523795   2.922   1.675   1.852  0.0678 -0.4591 -2.9437
   34PEO   H27623796   3.058   1.653   1.974 -0.8591 -0.8399  1.8719
   34PEO   O27723797   3.048   1.526   1.799  0.2148  0.3596 -0.0420
   34PEO   H27823798   2.997   1.669   1.653  1.0864  0.6679  1.0807
   34PEO   H27923799   3.072   1.519   1.591 -1.4158 -0.5006 -0.2615
   34PEO   C27A23800   3.071   1.591   1.674  0.3385 -0.4529 -0.2512
   34PEO   C27B23801   3.209   1.660   1.665 -0.7011 -0.3289 -0.7218
   34PEO   H27C23802   3.288   1.594   1.704 -0.9931  0.2767  0.9792
   34PEO   H27D23803   3.230   1.683   1.560 -2.0454 -1.7884 -1.3648
   34PEO   O27E23804   3.219   1.772   1.749  0.1212 -0.6766  0.5438
   34PEO   H27F23805   3.361   1.885   1.636 -2.4179 -0.4497 -0.1913
   34PEO   H28023806   3.419   1.761   1.753  1.3653  0.4980 -1.3094
   34PEO   C28123807   3.343   1.838   1.734 -0.2552 -0.6609  0.1438
   34PEO   C28223808   3.368   1.945   1.837  0.0868 -0.1111 -0.2772
   34PEO   H28323809   3.450   2.002   1.792 -1.1154  1.8539 -0.0764
   34PEO   H28423810   3.279   2.009   1.849 -1.8190 -2.5642 -0.2831
   34PEO   O28523811   3.400   1.892   1.977  0.4807 -0.8054  0.2465
   34PEO   H28623812   3.325   2.073   2.041 -0.0588 -0.7232 -1.2984
   34PEO   H28723813   3.496   2.029   2.098  0.4127 -1.7699 -1.2592
   34PEO   C28823814   3.394   1.995   2.075 -0.2264 -0.5097 -0.4316
   34PEO   C28923815   3.341   1.940   2.206  0.7753  0.1975 -0.5276
   34PEO   H28A23816   3.267   2.017   2.231 -1.7566 -1.1823 -3.2594
   34PEO   H28B23817   3.282   1.848   2.204  0.1512  0.5104  1.2900
   34PEO   O28C23818   3.443   1.935   2.313 -0.4836  0.0480  0.0893
   34PEO   H28D23819   3.335   2.038   2.456 -2.5253 -1.3947 -0.4704
   34PEO   H28E23820   3.485   1.938   2.507 -0.5638  1.7198  0.4981
   34PEO   C28F23821   3.394   1.945   2.446 -0.3876 -0.1486 -0.0613
   34PEO   C29023822   3.305   1.821   2.479  0.4167 -0.1394 -0.5206
   34PEO   H29123823   3.348   1.735   2.426  1.0805 -0.8155  1.0422
   34PEO   H29223824   3.315   1.788   2.584  0.3034 -0.6465 -0.6669
   34PEO   O29323825   3.167   1.851   2.443  0.4503  0.0300 -0.1104
   34PEO   H29423826   3.068   1.691   2.539  0.3379  3.2493  1.5754
   34PEO   H29523827   3.124   1.664   2.380  0.1785  0.8072 -0.3635
   34PEO   C29623828   3.074   1.741   2.441 -0.4633  0.2051 -0.1154
   34PEO   C29723829   2.936   1.784   2.389  0.3331  0.0178  0.3405
   34PEO   H29823830   2.856   1.710   2.405 -1.4497  1.7572 -0.1413
   34PEO   H29923831   2.911   1.879   2.438  2.1025 -0.5565  2.5049
   34PEO   O29A23832   2.954   1.803   2.249 -0.1274 -0.1765 -0.2199
   34PEO   H29B23833   3.015   1.998   2.290 -3.4871  3.9666  1.1288
   34PEO   H29C23834   2.855   1.992   2.220  0.0960  0.3114 -0.9177
   34PEO   C29D23835   2.956   1.948   2.212  0.2303  0.3617  0.3060
   34PEO   C29E23836   3.027   1.967   2.080  0.6125  0.2120  0.8019
   34PEO   H29F23837   3.084   2.061   2.081  0.3885  0.3754 -0.3614
   34PEO   H2A023838   3.102   1.891   2.056  0.7067  0.4110  0.4644
   34PEO   O2A123839   2.921   1.978   1.985 -0.3098  0.4355 -0.4165
   34PEO   H2A223840   2.989   1.919   1.787 -1.0202  0.4638 -0.4275
   34PEO   H2A323841   3.039   2.076   1.847  0.0865 -0.5797 -0.6910
   34PEO   C2A423842   2.954   2.007   1.842 -0.6698  0.2760  0.1096
   34PEO   C2A523843   2.835   2.084   1.785  0.0451 -0.0658  0.2977
   34PEO   H2A623844   2.857   2.082   1.677  1.6322 -2.7313  0.5547
   34PEO   H2A723845   2.736   2.042   1.810  0.2558 -0.5374  0.3673
   34PEO   O2A823846   2.849   2.221   1.832 -0.1508 -0.2405 -0.5878
   34PEO   H2A923847   2.734   2.407   1.869  0.4809 -0.6762  1.7615
   34PEO   H2AA23848   2.646   2.254   1.890 -1.6690  2.9187  0.1936
   34PEO   C2AB23849   2.726   2.303   1.833  0.8318 -0.3191  0.6084
   34PEO   C2AC23850   2.680   2.323   1.684 -0.5348 -0.3549  0.0172
   34PEO   H2AD23851   2.638   2.424   1.673 -3.8703 -1.5750  0.4373
   34PEO   H2AE23852   2.777   2.322   1.631 -0.4092  0.6105  0.2197
   34PEO   O2AF23853   2.596   2.209   1.641  0.2097  0.1708  0.1613
   34PEO   H2B023854   2.630   2.272   1.461 -1.2921  0.3848  0.9638
   34PEO   H2B123855   2.459   2.284   1.498 -1.1035 -0.7129 -1.5672
   34PEO   C2B223856   2.547   2.220   1.510 -1.0496 -0.2857  0.6668
   34PEO   C2B323857   2.516   2.084   1.442  0.1095  0.7967 -0.6237
   34PEO   H2B423858   2.498   2.005   1.516  1.0118  1.9042  0.8576
   34PEO   H2B523859   2.429   2.079   1.375 -0.0108 -3.6638 -0.4154
   34PEO   O2B623860   2.632   2.061   1.358 -0.2261  0.1028 -0.3984
   34PEO   H2B723861   2.674   1.867   1.402 -3.6470 -0.4162  0.8290
   34PEO   H2B823862   2.752   1.919   1.244  0.6387 -0.7773  1.0296
   34PEO   C2B923863   2.663   1.922   1.307  0.2299 -0.0283  0.4418
   34PEO   C2BA23864   2.541   1.872   1.225 -0.2673  0.0038  0.0238
   34PEO   H2BB23865   2.538   1.763   1.209  0.4065 -0.0516  0.2576
   34PEO   H2BC23866   2.452   1.894   1.284  0.1565  0.4373  0.5077
   34PEO   O2BD23867   2.541   1.946   1.103 -0.1457  0.0960 -0.1112
   34PEO   H2BE23868   2.447   1.953   1.079 -0.6506 -1.7643  1.0576
   35PEO   H00123869   1.008   1.001   0.724  0.5477  1.1407  1.2164
   35PEO   H00223870   1.056   1.165   0.716  2.0960 -3.3999  2.1599
   35PEO   H00323871   0.891   1.093   0.662  0.0878  2.1269  3.7169
   35PEO   C00423872   1.001   1.089   0.658  0.0900 -0.1616 -0.5787
   35PEO   C00523873   1.059   1.046   0.522  0.3163 -0.2248 -0.0810
   35PEO   H00623874   1.009   0.952   0.494 -1.2513  0.7815 -0.7738
   35PEO   H00723875   1.018   1.126   0.459  1.4327  0.9417  0.6210
   35PEO   O00823876   1.202   1.042   0.522  0.1648  0.3601  0.1163
   35PEO   H00923877   1.211   1.108   0.314 -3.0384 -0.2705  0.5492
   35PEO   H00A23878   1.199   0.941   0.336 -3.4192  1.2282  0.9167
   35PEO   C00B23879   1.246   1.028   0.383 -0.1859  0.2329 -0.1787
   35PEO   C00C23880   1.399   1.014   0.390 -0.9544 -0.3755  0.1705
   35PEO   H00D23881   1.448   1.067   0.307 -1.0921  1.7246  1.3544
   35PEO   H00E23882   1.427   1.074   0.477 -1.2011 -1.5671  1.0925
   35PEO   O00F23883   1.440   0.873   0.406  0.0922  0.1459 -1.0802
   35PEO   H01023884   1.560   0.875   0.596  2.8332 -2.5769  0.6480
   35PEO   H01123885   1.638   0.932   0.458  0.3121  1.1989  2.3060
   35PEO   C01223886   1.565   0.856   0.488  0.3404  0.1607 -0.0911
   35PEO   C01323887   1.609   0.711   0.462  0.2755 -0.0222  0.2505
   35PEO   H01423888   1.616   0.703   0.352  0.9141  0.9001  0.2155
   35PEO   H01523889   1.709   0.696   0.505  0.8095 -0.4081 -1.0571
   35PEO   O01623890   1.514   0.607   0.512 -0.4146  0.0467 -0.4282
   35PEO   H01723891   1.665   0.473   0.488 -0.2910  0.5140  0.4294
   35PEO   H01823892   1.523   0.439   0.385  0.8457 -1.8582  0.1917
   35PEO   C01923893   1.555   0.477   0.483 -0.2561  0.6331 -0.3069
   35PEO   C01A23894   1.500   0.372   0.585 -0.0688 -0.1620  0.0333
   35PEO   H01B23895   1.573   0.290   0.594 -0.8795 -1.2913 -2.7795
   35PEO   H01C23896   1.496   0.422   0.684 -2.0477  0.5437 -0.3495
   35PEO   O01D23897   1.370   0.320   0.541 -0.0867  0.1466  0.0152
   35PEO   H01E23898   1.180   0.250   0.588 -1.7633  1.1628  1.8980
   35PEO   H01F23899   1.276   0.318   0.731 -2.9788  1.0316 -0.3403
   35PEO   C02023900   1.279   0.265   0.634 -0.6257  1.0958 -0.3574
   35PEO   C02123901   1.328   0.126   0.674  0.0489 -0.4191 -0.3391
   35PEO   H02223902   1.243   0.076   0.723 -0.0882 -0.2104 -0.3642
   35PEO   H02323903   1.349   0.058   0.590 -2.8107 -1.6878 -0.1587
   35PEO   O02423904   1.431   0.138   0.774 -0.7958  0.1379 -0.0944
   35PEO   H02523905   1.582   0.004   0.839 -0.4126 -0.4088 -3.0430
   35PEO   H02623906   1.436  -0.079   0.790  1.0780 -1.3215  0.3640
   35PEO   C02723907   1.472   0.011   0.842 -0.3985 -0.4487 -0.0567
   35PEO   C02823908   1.434   0.035   0.986 -0.0243 -0.1193 -0.4044
   35PEO   H02923909   1.497  -0.027   1.051  0.8862 -1.7939 -2.7535
   35PEO   H02A23910   1.439   0.144   0.999  0.7456  0.1249 -2.4957
   35PEO   O02B23911   1.304  -0.009   1.017  0.2490 -0.1387 -0.4614
   35PEO   H02C23912   1.286   0.104   1.197  1.3740 -0.9810  1.4085
   35PEO   H02D23913   1.325  -0.067   1.214 -2.1808 -1.9509 -0.3913
   35PEO   C02E23914   1.263   0.004   1.158 -0.6032 -0.0738  0.1061
   35PEO   C02F23915   1.116  -0.034   1.172 -0.1699  0.5564  0.0807
   35PEO   H03023916   1.087  -0.013   1.276 -0.8245 -1.0460  0.2480
   35PEO   H03123917   1.044   0.020   1.108 -0.7668 -1.3869 -0.9804
   35PEO   O03223918   1.104  -0.175   1.160  0.3504  0.5724  0.7028
   35PEO   H03323919   1.158  -0.212   0.957  0.5244 -0.9397 -1.2273
   35PEO   H03423920   0.990  -0.177   0.980  1.3868 -0.1713 -3.1307
   35PEO   C03523921   1.075  -0.228   1.028  0.4066 -0.0713 -1.1542
   35PEO   C03623922   1.028  -0.375   1.032 -0.3655  0.2516 -0.3149
   35PEO   H03723923   0.932  -0.372   1.084 -0.6849 -0.0993 -0.8754
   35PEO   H03823924   1.008  -0.410   0.930  1.7113  0.3509 -0.8030
   35PEO   O03923925   1.131  -0.454   1.090  0.9772  0.1717 -0.2226
   35PEO   H03A23926   1.160  -0.567   0.912  1.6408 -0.4525  0.5946
   35PEO   H03B23927   1.048  -0.641   1.026 -0.0297  1.1749  0.3640
   35PEO   C03C23928   1.141  -0.582   1.019  0.3210  0.6507  0.5383
   35PEO   C03D23929   1.272  -0.656   1.062 -0.1618 -0.1416  0.0867
   35PEO   H03E23930   1.320  -0.700   0.973  1.2927  1.0318  0.2381
   35PEO   H03F23931   1.347  -0.584   1.098 -0.6573  0.0831  0.6767
   35PEO   O04023932   1.257  -0.748   1.170  0.3743  0.4872  0.2099
   35PEO   H04123933   1.450  -0.824   1.184 -0.9560 -0.0706  1.9301
   35PEO   H04223934   1.333  -0.917   1.075 -1.4300 -0.3890  0.2869
   35PEO   C04323935   1.347  -0.857   1.165 -0.6257 -0.1525  0.0104
   35PEO   C04423936   1.319  -0.941   1.287 -0.5223 -0.0958 -0.5540
   35PEO   H04523937   1.210  -0.932   1.300 -0.4164  1.0805 -0.3245
   35PEO   H04623938   1.348  -1.046   1.279  2.6616  0.5051  1.6042
   35PEO   O04723939   1.384  -0.891   1.408  0.8034 -0.1187  0.4255
   35PEO   H04823940   1.386  -1.067   1.508 -1.3983 -0.5921 -0.6236
   35PEO   H04923941   1.240  -0.954   1.536 -0.2920  1.8750 -1.5992
   35PEO   C04A23942   1.349  -0.965   1.520 -0.2290 -0.2025 -0.2035
   35PEO   C04B23943   1.432  -0.897   1.633  0.2721  0.0659  0.0171
   35PEO   H04C23944   1.444  -0.975   1.709 -0.2434  0.5479  0.5986
   35PEO   H04D23945   1.535  -0.885   1.594  0.8746 -1.4233  1.0866
   35PEO   O04E23946   1.369  -0.775   1.681  0.0622 -0.4239 -0.3467
   35PEO   H04F23947   1.183  -0.829   1.716  1.8288 -1.4924 -0.5500
   35PEO   H05023948   1.230  -0.683   1.808  1.9776  1.4137 -0.0504
   35PEO   C05123949   1.264  -0.782   1.774  0.0089  0.5056  0.5093
   35PEO   C05223950   1.299  -0.879   1.887  0.0915  0.4020 -0.6938
   35PEO   H05323951   1.407  -0.885   1.909  0.2570 -0.2693 -1.6037
   35PEO   H05423952   1.259  -0.846   1.984 -0.6795 -2.5288  0.1040
   35PEO   O05523953   1.244  -1.007   1.854  0.5196 -0.3204  0.3655
   35PEO   H05623954   1.212  -1.035   2.062  1.2077 -0.3907  0.1030
   35PEO   H05723955   1.324  -1.148   1.999 -0.0223  1.4464  4.3417
   35PEO   C05823956   1.234  -1.091   1.970  0.3455  0.0545 -0.3916
   35PEO   C05923957   1.122  -1.190   1.943 -0.4923  0.3500 -0.0291
   35PEO   H05A23958   1.095  -1.197   1.836 -1.2277  1.7551  0.0344
   35PEO   H05B23959   1.155  -1.287   1.983  1.3693  1.0840  0.3090
   35PEO   O05C23960   1.011  -1.146   2.019  0.2099 -0.1343 -0.0866
   35PEO   H05D23961   0.890  -1.318   1.978 -1.4842  0.4930  0.0647
   35PEO   H05E23962   0.840  -1.168   1.911  1.9075 -0.3267 -1.5281
   35PEO   C05F23963   0.891  -1.210   1.999  0.3251  0.5451 -0.1463
   35PEO   C06023964   0.813  -1.189   2.126 -0.5503 -0.3168  0.2053
   35PEO   H06123965   0.792  -1.082   2.132  0.8342 -0.0541  0.6179
   35PEO   H06223966   0.711  -1.230   2.119 -0.5231 -0.2445 -0.9042
   35PEO   O06323967   0.886  -1.243   2.238  0.0180  0.2138  0.5959
   35PEO   H06423968   0.726  -1.194   2.366 -0.3339  1.3758  2.5913
   35PEO   H06523969   0.873  -1.094   2.380  0.1137  0.6679 -2.3004
   35PEO   C06623970   0.836  -1.196   2.364 -0.3535  0.0675  1.6055
   35PEO   C06723971   0.908  -1.283   2.466 -0.4709 -0.1610 -0.1593
   35PEO   H06823972   1.017  -1.281   2.454 -0.3223 -2.3502  0.4508
   35PEO   H06923973   0.894  -1.241   2.567  0.8225 -0.5578  0.2004
   35PEO   O06A23974   0.858  -1.420   2.464  0.6889  0.0344 -0.1415
   35PEO   H06B23975   0.956  -1.518   2.606 -1.5289 -0.8884  0.2401
   35PEO   H06C23976   1.050  -1.502   2.453  0.6535 -0.4286  0.1876
   35PEO   C06D23977   0.952  -1.526   2.497  0.5482 -0.2108  0.0709
   35PEO   C06E23978   0.909  -1.673   2.464  0.2846  0.3441 -0.3572
   35PEO   H06F23979   0.959  -1.747   2.528 -1.9185 -1.2732 -0.3818
   35PEO   H07023980   0.801  -1.688   2.458  0.2859  0.4360 -0.6493
   35PEO   O07123981   0.972  -1.697   2.336  0.1167 -0.1319  0.0836
   35PEO   H07223982   0.855  -1.551   2.236 -0.6366 -0.3152 -2.2210
   35PEO   H07323983   0.795  -1.710   2.221  1.4092 -1.3885  0.4353
   35PEO   C07423984   0.890  -1.654   2.222  0.7594 -0.2382  0.2137
   35PEO   C07523985   0.966  -1.668   2.095 -0.2787  0.3524 -0.1191
   35PEO   H07623986   0.906  -1.620   2.016 -0.2284  0.4335 -0.1090
   35PEO   H07723987   1.058  -1.607   2.099 -1.4516  2.3437 -1.4011
   35PEO   O07823988   0.992  -1.801   2.058  0.3249  0.6195 -0.3323
   35PEO   H07923989   1.049  -1.906   2.227  1.8504  1.9246  1.3878
   35PEO   H07A23990   1.168  -1.791   2.151 -2.2511  2.6776 -1.2959
   35PEO   C07B23991   1.093  -1.869   2.133  0.1172  0.0228 -0.2704
   35PEO   C07C23992   1.154  -1.994   2.067  0.4124 -0.2062  0.4268
   35PEO   H07D23993   1.248  -2.014   2.121  1.4777  1.3488 -0.7756
   35PEO   H07E23994   1.083  -2.077   2.080  1.3194 -1.0549  0.0999
   35PEO   O07F23995   1.178  -1.966   1.925  0.0775  0.2726 -1.3089
   35PEO   H08023996   1.361  -2.058   1.958  0.7126 -0.4172 -1.5927
   35PEO   H08123997   1.330  -2.003   1.790 -1.8720 -1.0425 -2.1196
   35PEO   C08223998   1.285  -2.049   1.879 -0.2984  0.2675 -0.5711
   35PEO   C08323999   1.246  -2.197   1.839 -0.0947 -0.0347 -0.0724
   35PEO   H08424000   1.174  -2.205   1.756  0.6090 -2.8626 -0.5062
   35PEO   H08524001   1.333  -2.247   1.795 -0.8300 -0.9222 -0.5591
   35PEO   O08624002   1.205  -2.269   1.954  0.1945  0.7573 -0.0647
   35PEO   H08724003   1.112  -2.436   1.863 -1.7629 -0.5566  2.8445
   35PEO   H08824004   1.120  -2.450   2.030 -1.3092 -1.4050 -0.9149
   35PEO   C08924005   1.181  -2.415   1.945  0.6658 -0.2896  0.8712
   35PEO   C08A24006   1.316  -2.495   1.932 -0.0314  0.3704  0.0345
   35PEO   H08B24007   1.287  -2.601   1.932  2.6136 -0.4522  0.3725
   35PEO   H08C24008   1.365  -2.464   1.839 -2.2031  2.2855 -0.5295
   35PEO   O08D24009   1.398  -2.468   2.050  0.5223 -0.4146 -0.0181
   35PEO   H08E24010   1.424  -2.268   2.062 -0.5755 -1.1148  0.8092
   35PEO   H08F24011   1.549  -2.344   1.954  3.6773 -2.9943  0.4457
   35PEO   C09024012   1.489  -2.355   2.046  0.9194  0.2083 -0.7318
   35PEO   C09124013   1.593  -2.367   2.162  0.6306 -0.2054  0.3187
   35PEO   H09224014   1.597  -2.274   2.220 -1.9690 -1.2269  2.3493
   35PEO   H09324015   1.556  -2.446   2.230  1.4236 -1.3049 -0.4804
   35PEO   O09424016   1.714  -2.405   2.102 -0.3080  0.5539  0.0842
   35PEO   H09524017   1.768  -2.554   2.244 -0.2338 -0.4689  1.1010
   35PEO   H09624018   1.843  -2.398   2.273  0.6306  0.1592 -1.2915
   35PEO   C09724019   1.809  -2.465   2.193 -0.9833 -0.6955  0.0639
   35PEO   C09824020   1.931  -2.503   2.105 -0.9337 -0.5856  1.1095
   35PEO   H09924021   1.884  -2.541   2.013 -1.3184  0.8139  0.7023
   35PEO   H09A24022   1.989  -2.417   2.069 -0.1770 -0.7578  1.8891
   35PEO   O09B24023   2.000  -2.609   2.172 -1.0254  0.6298  0.1659
   35PEO   H09C24024   2.170  -2.606   2.048 -0.1141 -0.7943 -0.5495
   35PEO   H09D24025   2.048  -2.700   1.983 -0.2842  1.6073  0.1177
   35PEO   C09E24026   2.091  -2.675   2.081 -0.2717 -0.0983  0.5748
   35PEO   C09F24027   2.162  -2.806   2.143 -0.2149  0.0147 -0.5459
   35PEO   H0A024028   2.271  -2.798   2.149  0.0017 -2.1371 -0.8976
   35PEO   H0A124029   2.130  -2.827   2.246  2.3934  0.2870  0.3972
   35PEO   O0A224030   2.129  -2.919   2.059  0.0463  0.0718 -1.2930
   35PEO   H0A324031   2.151  -3.086   2.198  1.9118 -2.9277 -0.1021
   35PEO   H0A424032   2.295  -3.014   2.116 -0.3982  0.9503 -0.1604
   35PEO   C0A524033   2.189  -3.040   2.105 -0.1696 -0.2664  0.2787
   35PEO   C0A624034   2.156  -3.137   1.986 -0.1502 -0.1534  0.3903
   35PEO   H0A724035   2.188  -3.078   1.899  0.4803  2.5044  2.2850
   35PEO   H0A824036   2.216  -3.229   1.995 -1.0706 -0.5626  3.2805
   35PEO   O0A924037   2.018  -3.177   1.976 -0.2768 -0.1704 -0.3289
   35PEO   H0AA24038   2.076  -3.328   1.852 -0.0540 -0.7587 -1.5094
   35PEO   H0AB24039   2.024  -3.181   1.772  1.2230  0.5533  0.4405
   35PEO   C0AC24040   2.001  -3.248   1.857  1.0189  0.2067  0.1140
   35PEO   C0AD24041   1.852  -3.302   1.846 -0.0175 -0.3083 -0.5075
   35PEO   H0AE24042   1.793  -3.223   1.895  2.6608  0.8233  1.1383
   35PEO   H0AF24043   1.814  -3.307   1.743 -1.9741  0.5228  0.1310
   35PEO   O0B024044   1.832  -3.423   1.926 -0.1798 -0.2244  0.2094
   35PEO   H0B124045   1.632  -3.449   1.867  0.1092 -1.0580  0.3423
   35PEO   H0B224046   1.663  -3.359   2.018  1.2050  1.5099 -2.4761
   35PEO   C0B324047   1.694  -3.446   1.958  0.8324 -0.3426 -0.1638
   35PEO   C0B424048   1.687  -3.589   2.011  0.4647 -0.2209  0.1042
   35PEO   H0B524049   1.585  -3.628   2.011  0.7149 -0.8832 -0.2231
   35PEO   H0B624050   1.750  -3.653   1.948  1.2007  0.1175  0.4790
   35PEO   O0B724051   1.733  -3.602   2.144  0.3693  0.0427 -0.5398
   35PEO   H0B824052   1.892  -3.465   2.183  2.0091 -0.1110 -1.6646
   35PEO   H0B924053   1.922  -3.602   2.078 -2.9312  1.2120 -2.9029
   35PEO   C0BA24054   1.869  -3.571   2.169  0.3157  0.0677 -0.4500
   35PEO   C0BB24055   1.920  -3.656   2.283 -1.0931 -0.5294 -1.2369
   35PEO   H0BC24056   1.918  -3.766   2.277 -2.9012 -0.5429 -1.0033
   35PEO   H0BD24057   2.029  -3.643   2.281 -1.2037  1.9819  1.5691
   35PEO   O0BE24058   1.876  -3.599   2.407  0.5835  0.3374  0.1265
   35PEO   H0BF24059   1.684  -3.693   2.405  2.6572 -0.5475 -1.0197
   35PEO   H0C024060   1.682  -3.515   2.430  0.1084  0.1999  3.1725
   35PEO   C0C124061   1.736  -3.608   2.451  0.9614 -0.0896  0.1641
   35PEO   C0C224062   1.730  -3.615   2.604  1.0526 -0.1883 -0.5246
   35PEO   H0C324063   1.806  -3.550   2.650  0.7774 -0.8119  0.8575
   35PEO   H0C424064   1.642  -3.561   2.641  0.4946 -1.8549  0.6865
   35PEO   O0C524065   1.743  -3.755   2.651  0.0891  0.3078  0.1069
   35PEO   H0C624066   1.619  -3.709   2.815  0.4609  0.4569  1.9276
   35PEO   H0C724067   1.786  -3.688   2.831  0.6285  0.1686  0.1946
   35PEO   C0C824068   1.713  -3.758   2.788  0.1149  0.6051  0.3394
   35PEO   C0C924069   1.721  -3.905   2.827  0.1581  0.1220  0.7033
   35PEO   H0CA24070   1.655  -3.918   2.914  2.4771  1.8556  2.8597
   35PEO   H0CB24071   1.681  -3.963   2.743  0.7720  0.8374 -0.1129
   35PEO   O0CC24072   1.858  -3.933   2.864 -0.5832  0.7889  0.1527
   35PEO   H0CD24073   1.798  -3.989   3.055 -2.1186  1.6110 -1.0057
   35PEO   H0CE24074   1.857  -3.819   3.038  0.4665  0.9990 -3.0081
   35PEO   C0CF24075   1.873  -3.923   3.009 -0.4241  0.0919 -0.5189
   35PEO   C0D024076   2.013  -3.967   3.054 -0.3213 -0.2016 -0.9761
   35PEO   H0D124077   2.090  -3.908   3.002 -0.0842 -1.0215 -1.5562
   35PEO   H0D224078   2.009  -3.940   3.161  0.9476  0.4560 -1.0721
   35PEO   O0D324079   2.028  -4.112   3.044 -0.4512 -0.2961  0.1205
   35PEO   H0D424080   2.091  -4.153   3.233 -0.0721  1.7691  0.1697
   35PEO   H0D524081   2.218  -4.088   3.125 -1.5166  1.2368 -0.3950
   35PEO   C0D624082   2.133  -4.158   3.132 -0.4750 -0.0398  0.0484
   35PEO   C0D724083   2.188  -4.295   3.093  0.0405 -0.5553  0.3510
   35PEO   H0D824084   2.286  -4.313   3.140  1.9781  2.3101 -2.2303
   35PEO   H0D924085   2.123  -4.380   3.117 -0.4565 -0.2068  0.2512
   35PEO   O0DA24086   2.211  -4.296   2.959 -0.7543  0.9282  0.3133
   35PEO   H0DB24087   2.287  -4.490   2.946  2.5598  1.7212 -0.3721
   35PEO   H0DC24088   2.243  -4.401   2.791  1.4242  0.3128  1.5026
   35PEO   C0DD24089   2.215  -4.426   2.895  0.0848  0.3107  1.1584
   35PEO   C0DE24090   2.075  -4.499   2.875  0.4115 -0.1711 -0.3101
   35PEO   H0DF24091   2.085  -4.606   2.853  1.5353 -0.6369  2.1552
   35PEO   H0E024092   2.019  -4.508   2.969  1.1386  0.9204  0.2520
   35PEO   O0E124093   1.999  -4.438   2.776 -0.1901 -0.3782  0.0997
   35PEO   H0E224094   1.971  -4.252   2.853  0.6053 -0.3911  0.1245
   35PEO   H0E324095   1.835  -4.367   2.880  1.1606 -2.3425 -0.0037
   35PEO   C0E424096   1.913  -4.334   2.809  0.4102 -0.2329  0.0854
   35PEO   C0E524097   1.843  -4.269   2.690 -0.2937  0.2738  0.0023
   35PEO   H0E624098   1.814  -4.166   2.714  0.0779  0.1540  1.0427
   35PEO   H0E724099   1.900  -4.267   2.596 -2.7132 -1.9976 -1.6544
   35PEO   O0E824100   1.725  -4.344   2.658  0.4672 -0.1786 -0.4804
   35PEO   H0E924101   1.690  -4.237   2.481 -0.9389  1.8877  0.9058
   35PEO   H0EA24102   1.581  -4.368   2.514 -0.2140  0.2727 -0.0486
   35PEO   C0EB24103   1.687  -4.341   2.516 -0.4747  1.3895 -0.4548
   35PEO   C0EC24104   1.765  -4.427   2.424 -0.7608 -0.6654  0.4718
   35PEO   H0ED24105   1.743  -4.399   2.320  2.0377  1.2867  0.2802
   35PEO   H0EE24106   1.873  -4.413   2.441  0.1299 -2.5340 -2.7060
   35PEO   O0EF24107   1.737  -4.562   2.451  0.4245 -0.0034  0.1131
   35PEO   H0F024108   1.785  -4.738   2.559 -0.3777 -0.0871 -0.9630
   35PEO   H0F124109   1.863  -4.593   2.620 -1.3224  0.6416 -0.4692
   35PEO   C0F224110   1.832  -4.644   2.527 -0.2906  0.0266 -0.5004
   35PEO   C0F324111   1.953  -4.662   2.441 -0.5329  0.8372 -0.7032
   35PEO   H0F424112   1.985  -4.566   2.399 -1.2835  1.1001 -0.6985
   35PEO   H0F524113   2.030  -4.714   2.500 -1.7459  0.1123  0.2991
   35PEO   O0F624114   1.935  -4.776   2.359  0.7790 -0.3174  0.2060
   35PEO   H0F724115   1.992  -4.709   2.162  1.1310 -0.8969  0.6293
   35PEO   H0F824116   1.812  -4.718   2.186  0.4082 -1.1902 -1.6620
   35PEO   C0F924117   1.910  -4.762   2.213  0.4341  0.0514  0.5244
   35PEO   C0FA24118   1.910  -4.897   2.149 -0.5559 -0.4173 -0.1598
   35PEO   H0FB24119   1.866  -4.971   2.217  0.7641 -2.3725 -1.3208
   35PEO   H0FC24120   1.850  -4.900   2.057 -0.2565  1.9395 -0.4891
   35PEO   O0FD24121   2.050  -4.941   2.127 -0.6888 -0.4283 -0.4330
   35PEO   H0FE24122   2.008  -5.063   1.971 -2.9837 -1.7420  1.3536
   35PEO   H0FF24123   2.012  -5.157   2.120  1.0128 -1.4504 -0.7194
   35PEO   C10024124   2.056  -5.070   2.070 -0.2100 -0.2607  0.2132
   35PEO   C10124125   2.198  -5.107   2.063  0.5456  0.0371  0.2228
   35PEO   H10224126   2.229  -5.095   2.167 -2.6009  2.9908  0.9990
   35PEO   H10324127   2.222  -5.210   2.033  1.2725  0.5103 -0.8866
   35PEO   O10424128   2.266  -5.010   1.966  0.3801  0.9184  0.1141
   35PEO   H10524129   2.155  -5.049   1.791 -0.7666 -2.3322  1.8025
   35PEO   H10624130   2.267  -5.170   1.811 -0.6212  0.1057 -3.1047
   35PEO   C10724131   2.257  -5.062   1.829  0.3639 -0.2193 -0.2018
   35PEO   C10824132   2.367  -5.001   1.739  0.0672  0.3782  0.2978
   35PEO   H10924133   2.339  -4.972   1.637 -0.8394 -4.1317 -0.9144
   35PEO   H10A24134   2.395  -4.912   1.798 -0.0580  0.0430  0.8807
   35PEO   O10B24135   2.488  -5.083   1.750 -0.0015  0.3575 -0.5236
   35PEO   H10C24136   2.657  -4.960   1.679  1.8474 -2.5300  0.3093
   35PEO   H10D24137   2.544  -5.013   1.563 -1.1598 -1.5002 -0.6862
   35PEO   C10E24138   2.594  -5.047   1.655 -0.5648 -0.6326 -0.6713
   35PEO   C10F24139   2.682  -5.173   1.627  0.7810  0.2359  0.4141
   35PEO   H11024140   2.787  -5.147   1.645  1.4649 -1.6780 -0.5383
   35PEO   H11124141   2.638  -5.251   1.691 -0.2543 -0.0897 -0.6582
   35PEO   O11224142   2.663  -5.215   1.486  0.4068 -0.0948 -0.7644
   35PEO   H11324143   2.622  -5.426   1.463  1.0394 -1.3372 -1.5900
   35PEO   H11424144   2.786  -5.393   1.526  0.7293  3.5568  1.6553
   35PEO   C11524145   2.705  -5.355   1.461 -0.0207  0.0268  0.2674
   35PEO   C11624146   2.756  -5.345   1.309 -0.1239  0.5603  0.0099
   35PEO   H11724147   2.746  -5.436   1.248  1.5532  0.3364  0.0275
   35PEO   H11824148   2.690  -5.274   1.257  1.6140  2.7175  0.6053
   35PEO   O11924149   2.895  -5.294   1.312 -0.9580  0.3663  0.0514
   35PEO   H11A24150   3.033  -5.162   1.234 -2.0943  2.2908  0.6618
   35PEO   H11B24151   2.871  -5.151   1.163 -0.6569  0.0384 -0.0299
   35PEO   C11C24152   2.947  -5.222   1.199 -0.2365  0.2174 -0.5625
   35PEO   C11D24153   2.980  -5.322   1.084 -0.2783 -0.0928  0.6775
   35PEO   H11E24154   3.048  -5.285   1.005 -1.1127  1.1574  0.5068
   35PEO   H11F24155   3.022  -5.414   1.125  0.4849 -0.6519 -1.2413
   35PEO   O12024156   2.854  -5.358   1.020  1.0948  0.3043 -0.2011
   35PEO   H12124157   2.917  -5.531   0.920 -0.1225 -0.2664 -2.2382
   35PEO   H12224158   2.934  -5.389   0.825 -0.2442 -1.4907 -1.9132
   35PEO   C12324159   2.870  -5.434   0.903  0.7656  0.6866  0.3044
   35PEO   C12424160   2.732  -5.466   0.843 -0.2763 -0.1625  0.5153
   35PEO   H12524161   2.692  -5.367   0.816  0.2505 -0.1314 -0.1619
   35PEO   H12624162   2.742  -5.526   0.752  1.4303  0.2804  0.3857
   35PEO   O12724163   2.658  -5.524   0.952 -0.3975 -0.3100 -0.0751
   35PEO   H12824164   2.472  -5.611   1.001  0.6259 -1.6686 -1.0799
   35PEO   H12924165   2.484  -5.566   0.836  3.7052  1.0962 -0.6871
   35PEO   C12A24166   2.508  -5.529   0.936 -0.5524  0.4694  0.7994
   35PEO   C12B24167   2.441  -5.395   0.954 -0.0206  0.4170  0.5753
   35PEO   H12C24168   2.506  -5.309   0.933 -0.1471  0.7258  1.4102
   35PEO   H12D24169   2.351  -5.395   0.890  2.2392  0.1494 -2.8533
   35PEO   O12E24170   2.413  -5.376   1.091 -0.5040  0.0795 -0.7962
   35PEO   H12F24171   2.251  -5.231   1.089 -0.8288  0.2104  3.0990
   35PEO   H13024172   2.417  -5.169   1.086 -1.0033 -0.1678 -2.2127
   35PEO   C13124173   2.352  -5.246   1.129  0.4488 -0.2795 -0.0513
   35PEO   C13224174   2.355  -5.236   1.279 -0.4621  0.6429 -0.2823
   35PEO   H13324175   2.446  -5.272   1.330  1.6450  3.0471 -2.0495
   35PEO   H13424176   2.352  -5.128   1.298 -1.5519  0.7339 -0.8959
   35PEO   O13524177   2.233  -5.295   1.337 -0.2851 -0.5737  0.2010
   35PEO   H13624178   2.239  -5.189   1.518 -1.3493 -0.9014  2.8319
   35PEO   H13724179   2.341  -5.332   1.508  0.9391  3.0585  1.6457
   35PEO   C13824180   2.242  -5.292   1.482 -0.0017  0.0002  0.0640
   35PEO   C13924181   2.127  -5.388   1.532 -1.0992  0.2710 -0.3633
   35PEO   H13A24182   2.076  -5.440   1.449 -0.7317  0.2650 -0.5848
   35PEO   H13B24183   2.171  -5.459   1.603 -1.3531  0.8009  0.3301
   35PEO   O13C24184   2.045  -5.304   1.603  0.2690 -0.2254 -0.1973
   35PEO   H13D24185   1.884  -5.274   1.715  1.1243  0.3967 -0.1304
   35PEO   H13E24186   1.971  -5.433   1.751 -1.0561 -1.4132 -1.0239
   35PEO   C13F24187   1.938  -5.361   1.674 -0.3543 -0.4139 -0.4178
   35PEO   C14024188   1.825  -5.423   1.587  0.3257  0.4846 -1.0151
   35PEO   H14124189   1.739  -5.447   1.650  3.5779  1.2243  4.3475
   35PEO   H14224190   1.800  -5.353   1.505  4.4297  0.6856 -2.3708
   35PEO   O14324191   1.868  -5.551   1.528  0.3166 -0.3207  0.4961
   35PEO   H14424192   1.784  -5.710   1.603  0.3289 -0.0659 -1.8169
   35PEO   H14524193   1.898  -5.631   1.727  1.3328  0.7820  0.0568
   35PEO   C14624194   1.882  -5.665   1.623 -0.0351 -0.2195  0.5644
   35PEO   C14724195   2.005  -5.750   1.582 -0.2937 -0.0312  0.2020
   35PEO   H14824196   2.090  -5.684   1.559  0.6257 -0.7059  1.5224
   35PEO   H14924197   2.035  -5.821   1.662  0.1019  1.3990  1.3719
   35PEO   O14A24198   1.966  -5.832   1.469  0.2932 -0.4129  0.3276
   35PEO   H14B24199   2.136  -5.976   1.481 -0.6373 -2.8113 -2.6283
   35PEO   H14C24200   2.152  -5.829   1.393 -2.1487  1.5192  2.3189
   35PEO   C14D24201   2.079  -5.908   1.417 -0.9533 -0.4504 -0.0009
   35PEO   C14E24202   2.040  -5.992   1.290  0.7174 -0.6965  0.0443
   35PEO   H14F24203   1.962  -5.936   1.236  2.1032  0.0416 -1.2806
   35PEO   H15024204   2.119  -6.005   1.214 -0.0088 -1.1044 -0.6598
   35PEO   O15124205   1.988  -6.121   1.333  0.0653 -0.2742 -0.0668
   35PEO   H15224206   1.842  -6.126   1.186  2.0840  2.1763 -1.2725
   35PEO   H15324207   1.839  -6.269   1.294 -0.0661 -1.3324 -2.7285
   35PEO   C15424208   1.904  -6.196   1.244 -0.3224  0.5921 -0.4306
   35PEO   C15524209   2.004  -6.273   1.145 -0.1457 -0.2346 -0.2868
   35PEO   H15624210   2.095  -6.304   1.199  1.1626  0.4519 -2.0035
   35PEO   H15724211   1.955  -6.362   1.101  2.4757 -3.1707  2.2163
   35PEO   O15824212   2.040  -6.168   1.056  0.0185  0.6195 -0.4292
   35PEO   H15924213   2.101  -6.241   0.892 -3.0589  3.1893 -0.4815
   35PEO   H15A24214   2.235  -6.240   1.018 -1.0015  1.8602  3.4115
   35PEO   C15B24215   2.154  -6.184   0.969  0.0185  0.3848 -0.3116
   35PEO   C15C24216   2.203  -6.057   0.908 -0.4885 -0.1327  0.1726
   35PEO   H15D24217   2.301  -6.074   0.862 -0.2049  3.9439 -1.1066
   35PEO   H15E24218   2.133  -6.021   0.831 -1.0728  0.9048  1.1606
   35PEO   O15F24219   2.222  -5.950   1.008  0.2151  0.0589  0.5731
   35PEO   H16024220   2.096  -5.812   0.915  1.2859 -2.1641 -3.2670
   35PEO   H16124221   2.265  -5.799   0.863  0.3212 -2.3688 -0.0181
   35PEO   C16224222   2.201  -5.824   0.949  0.3843 -0.7200  0.5454
   35PEO   C16324223   2.219  -5.719   1.061  0.4336 -0.3946  0.1291
   35PEO   H16424224   2.271  -5.741   1.155 -1.1416 -2.0113  0.6746
   35PEO   H16524225   2.260  -5.631   1.009  0.3276  0.1121  0.8848
   35PEO   O16624226   2.088  -5.674   1.092  0.0846 -1.1065  0.2764
   35PEO   H16724227   2.144  -5.479   1.156  0.9012 -0.5944 -0.4822
   35PEO   H16824228   2.113  -5.591   1.288 -0.0763  1.4860  0.1930
   35PEO   C16924229   2.079  -5.562   1.187  0.3186 -0.1246 -0.4287
   35PEO   C16A24230   1.933  -5.514   1.188 -0.1472  0.6164 -0.0351
   35PEO   H16B24231   1.860  -5.595   1.173 -0.5731  0.9489  0.2199
   35PEO   H16C24232   1.905  -5.468   1.284 -0.7084  0.0945  0.0604
   35PEO   O16D24233   1.903  -5.422   1.084  0.6841  0.1571  0.1153
   35PEO   H16E24234   1.918  -5.235   1.009 -2.5501  0.8507  1.2297
   35PEO   H16F24235   2.071  -5.292   1.085 -0.1666 -0.5059 -1.0772
   35PEO   C17024236   1.961  -5.291   1.093 -0.1130  0.2061 -0.3445
   35PEO   C17124237   1.922  -5.215   1.225  0.3124 -0.0941  0.2311
   35PEO   H17224238   1.912  -5.274   1.317  0.1885 -0.5223 -0.0565
   35PEO   H17324239   1.992  -5.133   1.249  0.9404 -0.2326 -1.0450
   35PEO   O17424240   1.797  -5.145   1.214 -0.3026  0.7270 -0.1183
   35PEO   H17524241   1.847  -5.017   1.367  1.3065 -2.3486 -0.3028
   35PEO   H17624242   1.719  -5.123   1.402  0.3930  0.3172 -0.7175
   35PEO   C17724243   1.761  -5.065   1.319  0.1687  0.1749 -0.9311
   35PEO   C17824244   1.648  -4.967   1.280 -1.2623 -0.4864  0.0214
   35PEO   H17924245   1.554  -5.023   1.270 -0.9140 -1.6533  2.4548
   35PEO   H17A24246   1.648  -4.900   1.367  0.9725  1.5202 -1.4148
   35PEO   O17B24247   1.683  -4.891   1.163 -0.1045  0.0887  0.1269
   35PEO   H17C24248   1.559  -4.984   1.012 -1.4883  4.0527 -2.6517
   35PEO   H17D24249   1.727  -5.046   1.014  1.0812  0.5981 -3.8169
   35PEO   C17E24250   1.664  -4.958   1.033 -0.4596 -1.1321  0.3297
   35PEO   C17F24251   1.687  -4.852   0.926 -0.3598 -0.1977 -0.0355
   35PEO   H18024252   1.780  -4.794   0.934 -0.9444  0.7710  0.0584
   35PEO   H18124253   1.689  -4.902   0.828  0.5743  1.3664 -0.8638
   35PEO   O18224254   1.579  -4.753   0.925  0.8821  0.8893  0.0043
   35PEO   H18324255   1.541  -4.705   0.724 -1.9029 -1.2779  1.3667
   35PEO   H18424256   1.695  -4.643   0.796  0.2082 -2.2523 -1.0510
   35PEO   C18524257   1.588  -4.664   0.814 -0.2662  0.5028 -0.2009
   35PEO   C18624258   1.522  -4.532   0.845 -0.1717 -0.0636 -0.4352
   35PEO   H18724259   1.532  -4.478   0.750  0.5617 -1.3438 -1.1186
   35PEO   H18824260   1.413  -4.535   0.862  0.0480 -0.9880  1.0146
   35PEO   O18924261   1.598  -4.464   0.951 -0.2752  0.2016  0.2129
   35PEO   H18A24262   1.464  -4.365   1.053  1.8482  1.1380  2.4185
   35PEO   H18B24263   1.497  -4.292   0.897  1.4482 -1.3908 -1.6431
   35PEO   C18C24264   1.545  -4.342   0.983  0.0644 -0.6880 -0.4239
   35PEO   C18D24265   1.654  -4.251   1.034 -0.3803 -0.4419 -0.2848
   35PEO   H18E24266   1.748  -4.273   0.983 -0.0796 -0.5284  0.3001
   35PEO   H18F24267   1.642  -4.142   1.023 -4.2082 -0.7073 -0.0994
   35PEO   O19024268   1.666  -4.278   1.173 -0.0014 -0.0549  0.0942
   35PEO   H19124269   1.854  -4.197   1.191 -0.0539  1.9915  0.1914
   35PEO   H19224270   1.786  -4.258   1.338  1.6237  1.1046  1.1162
   35PEO   C19324271   1.760  -4.198   1.249  0.4418  0.4700  1.0144
   35PEO   C19424272   1.711  -4.056   1.278 -0.6639 -0.2097  0.0384
   35PEO   H19524273   1.793  -4.005   1.329 -0.6588 -0.8281  0.6759
   35PEO   H19624274   1.683  -4.003   1.186  2.6762  2.1737  0.2568
   35PEO   O19724275   1.602  -4.056   1.377 -0.3776 -0.4322 -0.3981
   35PEO   H19824276   1.437  -3.940   1.447 -0.2695  2.7622 -0.0631
   35PEO   H19924277   1.531  -3.860   1.319 -1.0455  0.3181  0.5211
   35PEO   C19A24278   1.538  -3.929   1.405  0.1900 -0.1414  0.0794
   35PEO   C19B24279   1.617  -3.852   1.517 -0.4376  0.5020 -0.8335
   35PEO   H19C24280   1.562  -3.766   1.558  0.1883  0.6171 -0.2289
   35PEO   H19D24281   1.638  -3.921   1.599 -5.2027 -0.6776 -0.3231
   35PEO   O19E24282   1.743  -3.809   1.470  0.0554 -0.7456  0.4998
   35PEO   H19F24283   1.837  -3.827   1.650 -0.4099  0.9996  2.2038
   35PEO   H1A024284   1.786  -3.655   1.602  0.6495 -0.3059 -0.1770
   35PEO   C1A124285   1.825  -3.753   1.570  0.0931 -0.7391  0.4320
   35PEO   C1A224286   1.972  -3.715   1.519 -0.2754  0.3985 -0.4555
   35PEO   H1A324287   2.034  -3.654   1.587  1.3361  1.2885 -2.6003
   35PEO   H1A424288   2.019  -3.810   1.493 -1.8531 -0.8217  0.8903
   35PEO   O1A524289   1.952  -3.623   1.405  1.0452 -0.8032  0.1237
   35PEO   H1A624290   2.083  -3.601   1.246 -0.5951  0.0895  0.2397
   35PEO   H1A724291   2.163  -3.577   1.403  0.1900 -0.0824 -0.3002
   35PEO   C1A824292   2.070  -3.560   1.348 -0.0297  0.3697  0.2041
   35PEO   C1A924293   2.034  -3.413   1.315 -0.7135  0.3166 -0.4964
   35PEO   H1AA24294   2.111  -3.383   1.243  1.2266 -0.7825  1.0258
   35PEO   H1AB24295   1.940  -3.420   1.259 -0.0154  0.5222 -1.7290
   35PEO   O1AC24296   2.040  -3.319   1.423  0.0367 -0.3843  0.3343
   35PEO   H1AD24297   2.217  -3.384   1.510  2.9212  0.5337 -2.0742
   35PEO   H1AE24298   2.149  -3.240   1.571 -0.3747 -0.5119 -0.4757
   35PEO   C1AF24299   2.172  -3.289   1.476 -0.7475 -0.4987 -0.5764
   35PEO   C1B024300   2.264  -3.204   1.380  1.0494  0.3194 -0.6704
   35PEO   H1B124301   2.198  -3.129   1.333 -1.7639 -1.2002  0.6232
   35PEO   H1B224302   2.342  -3.166   1.447 -0.8237  3.1256  0.1066
   35PEO   O1B324303   2.315  -3.288   1.280 -0.9324  0.2357 -0.1663
   35PEO   H1B424304   2.524  -3.234   1.270 -0.6179  0.1147  2.0474
   35PEO   H1B524305   2.406  -3.141   1.172 -1.1259  0.0442  1.6252
   35PEO   C1B624306   2.434  -3.241   1.207  0.5340  0.0181  0.3437
   35PEO   C1B724307   2.469  -3.344   1.084  0.1866 -0.4065 -0.0693
   35PEO   H1B824308   2.377  -3.376   1.033 -0.4675  1.3743 -0.0853
   35PEO   H1B924309   2.527  -3.294   1.006  0.2620  0.8610  0.7700
   35PEO   O1BA24310   2.545  -3.457   1.126 -0.4566 -0.3979 -0.2324
   35PEO   H1BB24311   2.408  -3.572   1.224  0.3595 -1.2713  1.6698
   35PEO   H1BC24312   2.512  -3.473   1.331 -2.6675  0.9608 -0.0883
   35PEO   C1BD24313   2.510  -3.533   1.239  0.1521 -0.2292  0.5111
   35PEO   C1BE24314   2.599  -3.656   1.233 -0.3136 -1.1042 -0.5339
   35PEO   H1BF24315   2.561  -3.748   1.279  1.5173 -1.6782 -0.1022
   35PEO   H1C024316   2.615  -3.686   1.129 -0.2318 -2.0042 -0.2707
   35PEO   O1C124317   2.723  -3.630   1.296 -0.9825 -0.2269 -0.3281
   35PEO   H1C224318   2.665  -3.700   1.487  1.5321 -1.0368  0.0227
   35PEO   H1C324319   2.685  -3.524   1.463  2.0855  1.4258 -0.3524
   35PEO   C1C424320   2.729  -3.623   1.441  0.1567  0.3524  0.3505
   35PEO   C1C524321   2.871  -3.633   1.494 -0.1445  0.6194  0.7708
   35PEO   H1C624322   2.936  -3.565   1.438  0.4659 -1.2842 -0.9646
   35PEO   H1C724323   2.871  -3.607   1.601  0.1082 -1.4295  1.3169
   35PEO   O1C824324   2.923  -3.761   1.486  0.1907 -0.4399 -0.2041
   35PEO   H1C924325   3.033  -3.727   1.659 -1.6414 -0.3566  0.2917
   35PEO   H1CA24326   3.123  -3.754   1.508 -1.3504  1.0864 -0.3683
   35PEO   C1CB24327   3.036  -3.787   1.566 -0.7313  0.0846  0.0221
   35PEO   C1CC24328   3.039  -3.938   1.599  0.4965  0.0980 -0.5726
   35PEO   H1CD24329   3.084  -3.960   1.696  0.3072  0.2920 -0.4379
   35PEO   H1CE24330   2.933  -3.969   1.603  0.4392  0.4303  1.5075
   35PEO   O1CF24331   3.106  -3.999   1.486 -0.0037 -0.3017 -0.4442
   35PEO   H1D024332   3.137  -4.195   1.531 -1.6876  1.9041  0.0635
   35PEO   H1D124333   3.259  -4.079   1.609  0.9544  2.2522  0.0719
   35PEO   C1D224334   3.197  -4.103   1.521  0.4173  0.6872  0.8457
   35PEO   C1D324335   3.280  -4.146   1.396  0.0321 -0.3248  0.7651
   35PEO   H1D424336   3.336  -4.235   1.429  3.9752  1.9718  0.9292
   35PEO   H1D524337   3.216  -4.159   1.307 -0.4993  1.0674  0.9229
   35PEO   O1D624338   3.378  -4.049   1.367 -0.5189 -0.2919  0.0807
   35PEO   H1D724339   3.281  -3.868   1.395  0.1944  0.8987 -1.0282
   35PEO   H1D824340   3.238  -3.956   1.252  1.4233 -0.3485 -0.6349
   35PEO   C1D924341   3.324  -3.930   1.316  0.7505 -0.6383  0.4266
   35PEO   C1DA24342   3.430  -3.849   1.241  0.5271 -0.7917 -0.4695
   35PEO   H1DB24343   3.388  -3.747   1.240 -3.0444 -2.0755  0.9456
   35PEO   H1DC24344   3.520  -3.858   1.303 -0.7718 -0.1075  1.6225
   35PEO   O1DD24345   3.457  -3.908   1.116  0.1668  0.0155  0.3545
   35PEO   H1DE24346   3.593  -3.766   1.096 -0.8432 -1.8004  1.4400
   35PEO   H1DF24347   3.449  -3.736   0.990  1.2446  1.8076  1.0516
   35PEO   C1E024348   3.521  -3.811   1.027 -0.1285 -0.3245 -0.3474
   35PEO   C1E124349   3.600  -3.877   0.910  0.4725 -0.6929 -0.4060
   35PEO   H1E224350   3.624  -3.790   0.847  1.2644 -0.3677  0.3309
   35PEO   H1E324351   3.699  -3.914   0.940  0.9248  1.2153  0.6713
   35PEO   O1E424352   3.521  -3.975   0.844  0.0304 -0.6345  0.4867
   35PEO   H1E524353   3.465  -3.831   0.694 -0.8536 -0.3093 -0.2118
   35PEO   H1E624354   3.338  -3.857   0.818 -0.3783 -1.7413  1.9486
   35PEO   C1E724355   3.419  -3.905   0.761 -0.2834 -0.0184  0.5214
   35PEO   C1E824356   3.343  -3.997   0.668 -0.2020  0.3867 -0.3862
   35PEO   H1E924357   3.294  -4.074   0.730  0.3225 -0.0642 -0.5144
   35PEO   H1EA24358   3.256  -3.955   0.617 -0.8529 -2.2878 -1.6619
   35PEO   O1EB24359   3.427  -4.044   0.575 -0.3640 -0.1354 -0.7960
   35PEO   H1EC24360   3.339  -4.229   0.560  0.6723 -0.6015  3.0354
   35PEO   H1ED24361   3.507  -4.233   0.617  1.0240  2.2641  0.6787
   35PEO   C1EE24362   3.438  -4.181   0.549  0.1200  0.0417 -0.1770
   35PEO   C1EF24363   3.490  -4.203   0.405 -0.1006 -0.1077  0.7651
   35PEO   H1F024364   3.500  -4.312   0.399 -2.5767 -0.3640 -0.0589
   35PEO   H1F124365   3.415  -4.160   0.337 -0.6066  1.0239  1.9920
   35PEO   O1F224366   3.619  -4.132   0.396  0.6195  0.6455  0.4546
   35PEO   H1F324367   3.795  -4.236   0.378 -0.1117 -0.2126 -0.2878
   35PEO   H1F424368   3.686  -4.302   0.499  2.8073 -1.4740 -0.8828
   35PEO   C1F524369   3.725  -4.208   0.458  0.0132  0.0627 -0.2734
   35PEO   C1F624370   3.779  -4.122   0.569 -1.0399  0.6287  0.3429
   35PEO   H1F724371   3.700  -4.079   0.632 -1.4976  0.0101  0.1977
   35PEO   H1F824372   3.837  -4.188   0.636  0.4144  0.0497 -1.4089
   35PEO   O1F924373   3.855  -4.017   0.516  0.3580  0.6360  0.0103
   35PEO   H1FA24374   3.971  -3.989   0.694 -1.3587 -0.3586  0.2747
   35PEO   H1FB24375   4.002  -3.876   0.563 -0.3471 -0.5031 -0.4515
   35PEO   C1FC24376   3.983  -3.982   0.585 -0.0485 -0.3796  0.4089
   35PEO   C1FD24377   4.104  -4.066   0.520 -0.1825  0.2616  0.5982
   35PEO   H1FE24378   4.118  -4.048   0.412 -1.7971  0.5865  0.4026
   35PEO   H1FF24379   4.201  -4.054   0.570  0.4331 -0.0660 -0.4708
   35PEO   O20024380   4.057  -4.199   0.526 -0.5340 -0.0562  0.1230
   35PEO   H20124381   4.239  -4.264   0.514 -1.2532  2.9831  0.4657
   35PEO   H20224382   4.150  -4.294   0.363  1.6629 -1.7483 -0.2210
   35PEO   C20324383   4.143  -4.297   0.473  0.0777 -0.4756 -0.2571
   35PEO   C20424384   4.098  -4.436   0.525 -0.3486 -0.7289 -0.0613
   35PEO   H20524385   4.178  -4.507   0.500 -0.1530 -1.7156  3.0001
   35PEO   H20624386   4.098  -4.430   0.635  0.4376  0.3980 -0.1082
   35PEO   O20724387   3.980  -4.467   0.468 -0.0271 -0.1466 -0.2527
   35PEO   H20824388   3.934  -4.602   0.613  2.2513  0.4778  0.2467
   35PEO   H20924389   4.018  -4.674   0.474 -1.1180 -1.1621 -1.5829
   35PEO   C20A24390   3.940  -4.602   0.504  0.5941  0.1040  0.1230
   35PEO   C20B24391   3.793  -4.626   0.446 -0.8572 -0.8212 -0.9559
   35PEO   H20C24392   3.749  -4.716   0.491 -0.3587 -0.9549 -0.7274
   35PEO   H20D24393   3.733  -4.538   0.473  1.5231  0.1726  1.6343
   35PEO   O20E24394   3.783  -4.637   0.306  0.2906  0.6351 -0.1078
   35PEO   H20F24395   3.926  -4.493   0.233 -0.9756  0.0767  1.2824
   35PEO   H21024396   3.754  -4.435   0.257 -0.2734 -0.6544  2.0349
   35PEO   C21124397   3.819  -4.516   0.221 -0.7845 -0.0076 -0.5906
   35PEO   C21224398   3.783  -4.549   0.075  0.9084 -0.4109 -0.2300
   35PEO   H21324399   3.717  -4.637   0.072 -0.5621  0.6529 -0.1106
   35PEO   H21424400   3.728  -4.463   0.034  1.6635 -0.6425 -1.8054
   35PEO   O21524401   3.905  -4.572   0.010 -0.1527  0.1254  0.7340
   35PEO   H21624402   3.957  -4.772  -0.011  1.2699  0.1947 -0.0824
   35PEO   H21724403   3.995  -4.692   0.147  0.3519 -0.7763  0.7094
   35PEO   C21824404   3.990  -4.679   0.038  0.1140  0.1562  0.8252
   35PEO   C21924405   4.135  -4.664  -0.021 -0.2527 -0.2241 -0.9995
   35PEO   H21A24406   4.167  -4.768  -0.010 -0.6511 -0.2179  0.5702
   35PEO   H21B24407   4.137  -4.620  -0.122 -1.4623  0.0506 -0.9202
   35PEO   O21C24408   4.208  -4.591   0.075  0.3640  0.1422 -0.6230
   35PEO   H21D24409   4.403  -4.513   0.110 -1.4902  0.3397  0.8565
   35PEO   H21E24410   4.347  -4.494  -0.056  3.4258 -1.1093 -1.5572
   35PEO   C21F24411   4.344  -4.562   0.031 -0.1938  0.4778 -0.2277
   35PEO   C22024412   4.435  -4.688  -0.013 -0.2112  0.3695  0.0121
   35PEO   H22124413   4.380  -4.781  -0.033  1.1369 -0.0558 -2.0106
   35PEO   H22224414   4.486  -4.659  -0.106 -0.2233 -1.3086 -0.5469
   35PEO   O22324415   4.530  -4.727   0.088  0.0295  0.0039  0.1729
   35PEO   H22424416   4.590  -4.872   0.224  0.3826 -1.0803 -1.8184
   35PEO   H22524417   4.465  -4.921   0.114 -2.4070  0.5033 -0.8333
   35PEO   C22624418   4.502  -4.833   0.170  0.3599 -0.3088 -1.2480
   35PEO   C22724419   4.393  -4.797   0.269  0.7185  0.4116 -0.1710
   35PEO   H22824420   4.427  -4.819   0.371 -0.7239  0.6510  0.3914
   35PEO   H22924421   4.364  -4.691   0.268 -1.2525  0.0169  2.7661
   35PEO   O22A24422   4.270  -4.861   0.226  0.0767 -0.1717 -0.2144
   35PEO   H22B24423   4.065  -4.874   0.245  0.1918 -1.5331  0.4916
   35PEO   H22C24424   4.144  -4.731   0.330  1.1924  0.7409 -1.0975
   35PEO   C22D24425   4.152  -4.837   0.302 -0.2007  0.3251 -0.0400
   35PEO   C22E24426   4.166  -4.926   0.432  0.6814  0.1105 -0.5484
   35PEO   H22F24427   4.267  -4.955   0.462 -0.4203  1.7788  6.6737
   35PEO   H23024428   4.126  -4.862   0.512 -0.4969 -2.2754  0.8739
   35PEO   O23124429   4.081  -5.038   0.416 -0.2203 -0.1083  0.1064
   35PEO   H23224430   4.194  -5.144   0.264 -2.1645 -2.2111 -1.6144
   35PEO   H23324431   4.055  -5.226   0.326  0.6317  1.3184 -3.2956
   35PEO   C23424432   4.139  -5.162   0.357  0.3329  0.1238  0.5025
   35PEO   C23524433   4.226  -5.241   0.465 -0.1568 -0.0485  0.0815
   35PEO   H23624434   4.174  -5.228   0.562 -2.4137 -0.9893 -0.9319
   35PEO   H23724435   4.243  -5.348   0.447  5.4166  0.5932 -0.2223
   35PEO   O23824436   4.352  -5.170   0.484 -0.5483 -0.1680  0.0905
   35PEO   H23924437   4.400  -5.070   0.299  2.0307  0.1726 -0.1726
   35PEO   H23A24438   4.433  -5.234   0.292  2.3418  1.3838 -0.7810
   35PEO   C23B24439   4.433  -5.152   0.366  0.0811  0.1032  0.7842
   35PEO   C23C24440   4.581  -5.135   0.405  0.2665  0.0117 -0.3364
   35PEO   H23D24441   4.594  -5.191   0.499  0.0360 -0.6354 -0.6862
   35PEO   H23E24442   4.650  -5.174   0.329  0.0686 -0.7359 -0.1421
   35PEO   O23F24443   4.606  -4.992   0.428 -0.4153 -0.2991 -0.1470
   35PEO   H24024444   4.817  -4.982   0.388  0.7558  1.0136 -0.1103
   35PEO   H24124445   4.766  -5.021   0.553  0.0776  1.5695  0.6104
   35PEO   C24224446   4.741  -4.961   0.465  0.5148  0.5477 -0.2194
   35PEO   C24324447   4.753  -4.814   0.519  0.3509  0.7807  0.1432
   35PEO   H24424448   4.858  -4.800   0.548 -0.1562  5.0705  0.4855
   35PEO   H24524449   4.750  -4.743   0.435  1.2754  0.3190 -0.2968
   35PEO   O24624450   4.650  -4.788   0.620 -0.7836  0.4937  0.0772
   35PEO   H24724451   4.692  -4.795   0.830 -1.3056 -0.3016  0.3514
   35PEO   H24824452   4.750  -4.939   0.739  0.6926 -0.2626  0.5496
   35PEO   C24924453   4.668  -4.866   0.749  0.9847  0.3015 -0.9363
   35PEO   C24A24454   4.532  -4.943   0.776  0.0768  0.3686 -0.6803
   35PEO   H24B24455   4.509  -5.016   0.698  2.6240  0.7425 -1.8938
   35PEO   H24C24456   4.544  -4.984   0.877  0.2280 -1.1068 -1.2743
   35PEO   O24D24457   4.430  -4.844   0.773 -0.2652  0.5396 -0.0851
   35PEO   H24E24458   4.275  -4.969   0.840 -4.2728 -2.7679 -2.7771
   35PEO   H24F24459   4.275  -4.942   0.668 -2.3780  2.1544 -0.1353
   35PEO   C25024460   4.298  -4.893   0.764 -0.7473  0.0533  0.6330
   35PEO   C25124461   4.198  -4.777   0.759  0.1005 -0.6439 -0.5699
   35PEO   H25224462   4.223  -4.719   0.669 -1.0598 -0.4829 -0.8050
   35PEO   H25324463   4.098  -4.818   0.740 -0.3466 -0.2270  0.7816
   35PEO   O25424464   4.184  -4.691   0.878 -0.6128 -0.2010  0.1712
   35PEO   H25524465   4.265  -4.828   1.026  0.2154  0.6251  1.3028
   35PEO   H25624466   4.083  -4.809   1.002  0.6174 -1.0196 -1.7584
   35PEO   C25724467   4.181  -4.759   1.006  0.0673  0.0437 -0.2148
   35PEO   C25824468   4.175  -4.651   1.122  0.4907 -0.3127  0.3335
   35PEO   H25924469   4.115  -4.565   1.088  0.2501 -0.6278 -0.0361
   35PEO   H25A24470   4.130  -4.699   1.210  0.4299 -0.5768  0.1570
   35PEO   O25B24471   4.307  -4.606   1.151 -0.1717  0.9567  0.1778
   35PEO   H25C24472   4.232  -4.494   1.302 -1.7712  0.0263 -0.9971
   35PEO   H25D24473   4.272  -4.416   1.146  0.5695 -1.8852 -0.8883
   35PEO   C25E24474   4.307  -4.488   1.221  0.3239 -0.3024  0.8234
   35PEO   C25F24475   4.440  -4.452   1.277 -0.0838  0.2902 -0.2635
   35PEO   H26024476   4.428  -4.373   1.354 -1.1911 -0.1971  0.0891
   35PEO   H26124477   4.474  -4.542   1.329 -1.3372  0.1820  0.4208
   35PEO   O26224478   4.518  -4.396   1.170  0.0243 -0.2417 -0.9198
   35PEO   H26324479   4.703  -4.410   1.260  0.2053  1.6049  2.3638
   35PEO   H26424480   4.611  -4.259   1.276 -1.4747 -0.5424 -0.4782
   35PEO   C26524481   4.645  -4.335   1.204 -0.0557 -0.2947 -0.1090
   35PEO   C26624482   4.705  -4.277   1.071  0.2947 -0.5607  0.1874
   35PEO   H26724483   4.628  -4.235   1.004 -0.7967 -0.7084  1.3090
   35PEO   H26824484   4.782  -4.202   1.095 -0.6149  0.6572 -0.5357
   35PEO   O26924485   4.776  -4.380   1.005  0.1699  0.1762 -0.2557
   35PEO   H26A24486   4.730  -4.340   0.820  1.4131  0.0851  0.9910
   35PEO   H26B24487   4.620  -4.466   0.908 -0.3036 -0.3970  0.6575
   35PEO   C26C24488   4.721  -4.427   0.887 -0.4271 -0.2086  0.4149
   35PEO   C26D24489   4.818  -4.544   0.833  0.2138 -0.3343  0.2789
   35PEO   H26E24490   4.839  -4.604   0.923 -0.2266 -0.4325  0.3220
   35PEO   H26F24491   4.760  -4.599   0.757  4.6029  0.6529 -4.2942
   35PEO   O27024492   4.941  -4.501   0.771  0.1174  0.0729  0.6326
   35PEO   H27124493   4.993  -4.699   0.739 -2.2129  0.4972 -0.7519
   35PEO   H27224494   5.117  -4.597   0.816 -0.5224 -0.3561 -0.0426
   35PEO   C27324495   5.036  -4.597   0.741 -0.7284 -0.1216  0.1779
   35PEO   C27424496   5.088  -4.553   0.597 -0.4361  1.0101 -0.3098
   35PEO   H27524497   5.098  -4.443   0.594 -2.3784  1.2079 -1.1245
   35PEO   H27624498   5.185  -4.599   0.573 -2.0923 -2.5241 -0.8867
   35PEO   O27724499   4.987  -4.595   0.495  0.2651  0.3118 -0.0491
   35PEO   H27824500   5.132  -4.660   0.370 -0.8210  0.2673  0.3648
   35PEO   H27924501   5.096  -4.492   0.350 -1.0948  0.5457 -0.4489
   35PEO   C27A24502   5.048  -4.589   0.367 -0.6896  0.4120 -0.0758
   35PEO   C27B24503   4.956  -4.617   0.247 -0.9667  0.7225  0.0200
   35PEO   H27C24504   4.856  -4.572   0.253 -0.2761  2.2792  0.3190
   35PEO   H27D24505   4.996  -4.588   0.149 -0.2663 -0.4295 -0.0527
   35PEO   O27E24506   4.927  -4.753   0.250 -0.4802  0.2699  0.7503
   35PEO   H27F24507   4.775  -4.734   0.102 -0.1178  1.5191  1.2623
   35PEO   H28024508   4.813  -4.899   0.151 -0.2012 -0.0153 -0.3935
   35PEO   C28124509   4.858  -4.801   0.128 -0.6548  0.2420 -0.1918
   35PEO   C28224510   4.944  -4.802  -0.008  0.6335 -1.0738 -0.3817
   35PEO   H28324511   5.051  -4.821   0.011  1.2005  2.0898  0.0719
   35PEO   H28424512   4.895  -4.879  -0.068 -1.1055 -0.9539  0.8171
   35PEO   O28524513   4.932  -4.682  -0.090 -0.4903  0.7362  0.3270
   35PEO   H28624514   4.729  -4.692  -0.122 -0.3251  0.5959 -0.7652
   35PEO   H28724515   4.838  -4.731  -0.259  1.1745  0.6152 -0.9929
   35PEO   C28824516   4.823  -4.665  -0.172 -0.0717 -0.0727 -0.6588
   35PEO   C28924517   4.821  -4.513  -0.222 -0.5834  0.1757  0.5822
   35PEO   H28A24518   4.905  -4.483  -0.286  0.6219 -1.5624  1.3048
   35PEO   H28B24519   4.729  -4.489  -0.277 -1.2040  1.7649  2.1761
   35PEO   O28C24520   4.824  -4.410  -0.119 -0.0942  0.9514 -0.2620
   35PEO   H28D24521   4.628  -4.460  -0.031  1.1763  0.7972  3.2165
   35PEO   H28E24522   4.661  -4.321  -0.131  0.7712  0.2731  0.0686
   35PEO   C28F24523   4.702  -4.380  -0.048  0.5971  0.8543  0.5790
   35PEO   C29024524   4.738  -4.311   0.085 -0.5882 -0.5467  0.3694
   35PEO   H29124525   4.650  -4.288   0.147  0.2037  0.9996  0.9655
   35PEO   H29224526   4.807  -4.371   0.146 -1.0778 -1.2243  0.2663
   35PEO   O29324527   4.794  -4.177   0.045  0.4307 -0.0925 -0.1904
   35PEO   H29424528   4.867  -4.156   0.230 -1.2969 -3.4166 -1.0894
   35PEO   H29524529   4.705  -4.103   0.214  0.2386 -1.3988 -0.4184
   35PEO   C29624530   4.801  -4.100   0.162  0.3772 -0.0059 -0.1314
   35PEO   C29724531   4.856  -3.958   0.128 -0.0272  0.2349 -0.1332
   35PEO   H29824532   4.914  -3.928   0.216  0.6740 -0.0268 -0.4986
   35PEO   H29924533   4.929  -3.968   0.046  0.7727  0.2958  0.5566
   35PEO   O29A24534   4.748  -3.876   0.095  0.4868  0.1865  0.3608
   35PEO   H29B24535   4.681  -3.678   0.057 -1.5769 -1.5143  0.6967
   35PEO   H29C24536   4.846  -3.719   0.000  0.1867  0.1118  0.1766
   35PEO   C29D24537   4.773  -3.734   0.081 -0.2508  0.1820 -0.2049
   35PEO   C29E24538   4.833  -3.675   0.211 -0.1779 -0.2903 -0.0004
   35PEO   H29F24539   4.925  -3.733   0.231 -1.3399 -1.4801  2.3158
   35PEO   H2A024540   4.863  -3.570   0.198 -2.2047  0.8679  3.4034
   35PEO   O2A124541   4.749  -3.699   0.318  0.8327 -0.3121 -0.1152
   35PEO   H2A224542   4.792  -3.525   0.403 -0.1893  0.2726 -0.8029
   35PEO   H2A324543   4.891  -3.664   0.460  0.3785  1.4308 -1.0609
   35PEO   C2A424544   4.789  -3.631   0.435 -0.0820  0.2752 -0.7834
   35PEO   C2A524545   4.685  -3.658   0.545  0.2133 -0.2294  0.1851
   35PEO   H2A624546   4.659  -3.765   0.552  0.5113 -0.2420  1.1370
   35PEO   H2A724547   4.716  -3.627   0.645  0.1441 -0.0858  0.1626
   35PEO   O2A824548   4.573  -3.579   0.518  0.4042 -0.1459  0.5376
   35PEO   H2A924549   4.466  -3.673   0.676 -0.3234 -0.2390 -0.4694
   35PEO   H2AA24550   4.403  -3.705   0.514 -0.5165  0.2166 -0.8362
   35PEO   C2AB24551   4.450  -3.628   0.577  0.5116 -0.4778 -0.7253
   35PEO   C2AC24552   4.341  -3.511   0.593 -0.3765  0.4684  1.0155
   35PEO   H2AD24553   4.330  -3.460   0.496 -1.7968 -3.3057 -1.0370
   35PEO   H2AE24554   4.241  -3.553   0.613  0.5304 -2.4697 -0.0167
   35PEO   O2AF24555   4.395  -3.421   0.693 -0.0521  0.1205 -0.4901
   35PEO   H2B024556   4.238  -3.379   0.825 -0.1358 -1.7226 -0.5312
   35PEO   H2B124557   4.263  -3.263   0.666  1.6124 -1.2090 -1.3125
   35PEO   C2B224558   4.297  -3.329   0.747 -0.3445 -0.8869 -0.1626
   35PEO   C2B324559   4.387  -3.222   0.817  0.1956 -0.7652  0.0469
   35PEO   H2B424560   4.463  -3.182   0.748 -2.6124 -1.0050 -3.5019
   35PEO   H2B524561   4.314  -3.143   0.839  0.4918 -0.8419  1.3835
   35PEO   O2B624562   4.443  -3.277   0.939 -0.1028 -0.1334 -0.3101
   35PEO   H2B724563   4.557  -3.107   0.944 -0.8486  1.1147  2.7273
   35PEO   H2B824564   4.646  -3.266   0.966 -1.6296 -1.6846 -0.5082
   35PEO   C2B924565   4.558  -3.206   0.992 -0.5144 -0.2238  0.0823
   35PEO   C2BA24566   4.533  -3.201   1.144  0.1681 -0.6561  0.0996
   35PEO   H2BB24567   4.468  -3.285   1.172 -2.0442  0.4834 -1.2625
   35PEO   H2BC24568   4.632  -3.205   1.191  0.6482  0.5397 -0.7584
   35PEO   O2BD24569   4.453  -3.086   1.179  0.5395  0.6481 -0.5022
   35PEO   H2BE24570   4.453  -3.072   1.275  3.6312  0.4974 -0.3835
   36PEO   H00124571   4.872   0.970   2.312  2.9487 -0.4097 -0.8585
   36PEO   H00224572   4.741   1.018   2.193 -1.6364  2.0238  1.7553
   36PEO   H00324573   4.909   1.083   2.182 -0.3643 -1.2958 -0.7186
   36PEO   C00424574   4.829   1.051   2.250  0.3590 -0.6750  0.4415
   36PEO   C00524575   4.778   1.157   2.350 -0.3756  0.5788 -0.4029
   36PEO   H00624576   4.686   1.127   2.401  0.1596 -0.1511  0.1498
   36PEO   H00724577   4.852   1.153   2.432 -0.3821  2.0743 -0.2824
   36PEO   O00824578   4.766   1.276   2.276 -0.9357 -0.3254  0.0224
   36PEO   H00924579   4.824   1.478   2.304  0.5768  0.8786  0.7838
   36PEO   H00A24580   4.859   1.378   2.441  2.2874  3.4060 -1.5380
   36PEO   C00B24581   4.786   1.390   2.359  0.1832  0.3550 -0.3035
   36PEO   C00C24582   4.652   1.430   2.426  0.3274 -0.0481  0.0204
   36PEO   H00D24583   4.604   1.335   2.452  0.5975 -0.1925 -0.0050
   36PEO   H00E24584   4.663   1.488   2.519 -1.0271 -2.5203  1.8290
   36PEO   O00F24585   4.574   1.504   2.335  0.1159  0.4744 -0.5799
   36PEO   H01024586   4.427   1.623   2.421  0.9041  1.3155 -1.9895
   36PEO   H01124587   4.391   1.449   2.396 -1.2702  1.7932  2.6779
   36PEO   C01224588   4.443   1.537   2.354  0.0093 -0.2311 -0.3187
   36PEO   C01324589   4.389   1.599   2.219 -0.1130  0.0596  0.6487
   36PEO   H01424590   4.296   1.657   2.228 -0.6876 -0.5716 -0.8273
   36PEO   H01524591   4.475   1.661   2.191 -0.6437  0.0436 -1.2116
   36PEO   O01624592   4.368   1.491   2.121 -0.2229 -0.0269 -0.0422
   36PEO   H01724593   4.347   1.488   1.916 -1.1289  2.3345 -1.9526
   36PEO   H01824594   4.303   1.640   1.983 -1.5779  0.7281  2.1114
   36PEO   C01924595   4.300   1.532   2.005 -0.0033  0.1407 -0.1806
   36PEO   C01A24596   4.158   1.471   2.018 -0.6493  0.2492 -0.2404
   36PEO   H01B24597   4.100   1.476   1.925 -1.8812 -1.0688  0.4177
   36PEO   H01C24598   4.173   1.368   2.054 -2.0702 -0.3859 -1.3785
   36PEO   O01D24599   4.082   1.548   2.110  0.2942  0.4818 -0.4496
   36PEO   H01E24600   4.061   1.397   2.240  1.2809  2.6050  1.5924
   36PEO   H01F24601   3.909   1.426   2.132 -2.1498  0.9720  1.2175
   36PEO   C02024602   3.991   1.468   2.191 -0.6909 -0.1908  0.0740
   36PEO   C02124603   3.921   1.553   2.293 -0.1453  0.2871  0.0639
   36PEO   H02224604   3.887   1.645   2.243  0.5192 -1.4227 -3.8895
   36PEO   H02324605   3.848   1.488   2.344  0.7030 -0.7325  0.0250
   36PEO   O02424606   4.028   1.590   2.385  0.4225 -0.1690 -0.4664
   36PEO   H02524607   3.927   1.768   2.454  0.8798  0.5145  1.1026
   36PEO   H02624608   4.073   1.742   2.530 -0.6699  3.4626 -4.2405
   36PEO   C02724609   3.989   1.684   2.488  0.0606 -0.8247 -0.5422
   36PEO   C02824610   3.911   1.606   2.592 -0.5451  0.0811  0.4155
   36PEO   H02924611   3.959   1.507   2.591  2.2655  1.3559  0.7270
   36PEO   H02A24612   3.934   1.639   2.694  0.4399 -3.6787  1.5945
   36PEO   O02B24613   3.767   1.609   2.564  0.3584 -0.4391 -0.0720
   36PEO   H02C24614   3.580   1.706   2.554  0.3628 -0.1299  0.0734
   36PEO   H02D24615   3.709   1.785   2.472  2.8596 -1.5323 -0.5591
   36PEO   C02E24616   3.686   1.730   2.565  0.3021  0.1993 -0.0561
   36PEO   C02F24617   3.722   1.821   2.684  0.2849  0.1063 -0.2647
   36PEO   H03024618   3.823   1.865   2.677 -0.3811  1.9099  0.8520
   36PEO   H03124619   3.662   1.912   2.669 -2.9119 -1.9957 -1.3188
   36PEO   O03224620   3.701   1.760   2.815  0.6101  0.0645  0.0710
   36PEO   H03324621   3.642   1.929   2.916 -2.8569 -2.0841  1.4867
   36PEO   H03424622   3.815   1.880   2.943 -0.5178  1.7572 -0.5389
   36PEO   C03524623   3.713   1.845   2.925 -0.0250 -0.0616 -0.0453
   36PEO   C03624624   3.675   1.766   3.053 -0.1862  0.6623 -0.1161
   36PEO   H03724625   3.729   1.670   3.054  0.4980  1.0365  0.1278
   36PEO   H03824626   3.706   1.815   3.147 -1.2858  1.3058 -0.0707
   36PEO   O03924627   3.539   1.751   3.028 -0.2647  0.9824  0.1244
   36PEO   H03A24628   3.389   1.612   3.085  0.4736  0.1805  1.8495
   36PEO   H03B24629   3.551   1.595   3.158 -0.2465 -0.1229 -0.5050
   36PEO   C03C24630   3.497   1.622   3.066  0.0987  0.3942 -0.5553
   36PEO   C03D24631   3.533   1.525   2.959  0.4321 -0.1617  0.1522
   36PEO   H03E24632   3.604   1.560   2.883 -0.1812 -0.9798 -0.8194
   36PEO   H03F24633   3.556   1.426   3.001 -1.8134 -1.2823 -1.0934
   36PEO   O04024634   3.416   1.493   2.876  0.4008 -0.3246  0.1440
   36PEO   H04124635   3.495   1.562   2.690 -0.5536 -0.9476 -0.8974
   36PEO   H04224636   3.401   1.686   2.784 -0.7785 -0.7421  0.8409
   36PEO   C04324637   3.407   1.580   2.754  0.0971 -0.4351 -0.1338
   36PEO   C04424638   3.283   1.523   2.680 -0.5338  0.0172 -0.3000
   36PEO   H04524639   3.295   1.567   2.579  0.7450 -0.9391 -0.5991
   36PEO   H04624640   3.288   1.415   2.665 -1.4828 -0.0989  0.1889
   36PEO   O04724641   3.156   1.545   2.736 -0.0607  0.6511 -0.1916
   36PEO   H04824642   3.189   1.740   2.808 -0.7126 -0.1444 -0.9242
   36PEO   H04924643   3.212   1.632   2.931  1.9000 -3.0817 -1.6309
   36PEO   C04A24644   3.148   1.644   2.843 -0.0467 -0.1072  0.0175
   36PEO   C04B24645   3.000   1.658   2.884 -0.4145 -0.0374  0.4548
   36PEO   H04C24646   2.985   1.731   2.964  0.5282  2.9395 -1.9043
   36PEO   H04D24647   2.940   1.691   2.797 -0.0111  0.3329  0.3162
   36PEO   O04E24648   2.956   1.527   2.927 -0.8031 -0.1238 -0.0852
   36PEO   H04F24649   2.783   1.531   2.834  0.4406 -0.0806 -0.4273
   36PEO   H05024650   2.788   1.584   3.022 -0.6947 -1.2216 -0.0467
   36PEO   C05124651   2.819   1.520   2.937  0.4808 -0.1766 -0.4512
   36PEO   C05224652   2.778   1.370   2.959  0.1302 -0.3150 -0.0036
   36PEO   H05324653   2.673   1.348   2.934 -0.1664  0.9060  0.1069
   36PEO   H05424654   2.840   1.297   2.906  1.1965  0.8827 -0.4584
   36PEO   O05524655   2.771   1.340   3.097  0.5546  0.2211 -0.1002
   36PEO   H05624656   2.579   1.243   3.130  0.5164  3.5526 -0.2769
   36PEO   H05724657   2.713   1.218   3.243  0.0471  1.2421 -0.1210
   36PEO   C05824658   2.688   1.223   3.136  0.0062  0.0464 -0.1899
   36PEO   C05924659   2.716   1.087   3.058  0.0630 -0.2011 -1.3430
   36PEO   H05A24660   2.825   1.071   3.057  1.3485  4.9114  3.2803
   36PEO   H05B24661   2.670   1.007   3.118 -0.6057  0.6250 -0.7236
   36PEO   O05C24662   2.653   1.093   2.930 -0.6162 -0.3267 -0.4151
   36PEO   H05D24663   2.596   0.893   2.894  0.7813  0.3795  0.6259
   36PEO   H05E24664   2.764   0.921   2.872 -0.8812 -2.4482  0.3663
   36PEO   C05F24665   2.666   0.970   2.858  0.4437  0.0204 -0.8438
   36PEO   C06024666   2.628   0.981   2.712  0.0434 -0.0027  0.6344
   36PEO   H06124667   2.701   1.047   2.663 -0.0728 -0.7318 -0.5712
   36PEO   H06224668   2.640   0.879   2.674 -0.5044  0.7200 -1.6660
   36PEO   O06324669   2.492   1.026   2.677 -0.0942  0.6582 -1.0428
   36PEO   H06424670   2.534   1.234   2.721 -0.0125  0.3667 -2.8525
   36PEO   H06524671   2.441   1.135   2.834 -3.2284 -0.3214  0.0113
   36PEO   C06624672   2.458   1.154   2.727 -0.1163  0.5357  0.5706
   36PEO   C06724673   2.330   1.200   2.652 -0.1267  0.0003  0.1993
   36PEO   H06824674   2.305   1.305   2.671 -2.3776 -0.2019 -1.3039
   36PEO   H06924675   2.343   1.190   2.544 -0.5500 -0.8211  0.2129
   36PEO   O06A24676   2.215   1.119   2.685 -0.2061 -0.7764 -0.2735
   36PEO   H06B24677   2.089   1.274   2.627 -0.1799 -0.3976 -4.0082
   36PEO   H06C24678   2.013   1.129   2.709  1.0412  2.1108  2.6266
   36PEO   C06D24679   2.089   1.164   2.639 -0.1565 -0.1300  0.0156
   36PEO   C06E24680   2.062   1.100   2.504 -0.5178 -0.2668 -0.3296
   36PEO   H06F24681   1.959   1.116   2.471 -1.7878  1.6273  3.8110
   36PEO   H07024682   2.147   1.135   2.443  0.2759  0.4152  1.0975
   36PEO   O07124683   2.081   0.963   2.520 -0.8109 -0.0182  0.3188
   36PEO   H07224684   2.164   0.926   2.326 -0.6617 -0.2770 -1.0175
   36PEO   H07324685   1.985   0.903   2.346 -1.5513  3.6583  1.5433
   36PEO   C07424686   2.084   0.889   2.392 -0.8292  0.7588 -0.6270
   36PEO   C07524687   2.100   0.736   2.427 -0.0723 -0.1793 -0.1110
   36PEO   H07624688   2.021   0.719   2.502  0.0261 -0.1200  0.0074
   36PEO   H07724689   2.083   0.678   2.335  0.1614  0.4836 -0.5847
   36PEO   O07824690   2.227   0.695   2.478  0.3042 -0.0929 -0.1453
   36PEO   H07924691   2.188   0.765   2.674 -0.8196 -0.8231 -1.2943
   36PEO   H07A24692   2.304   0.867   2.583  2.2935  0.3297  2.1281
   36PEO   C07B24693   2.271   0.764   2.601 -0.1733  0.4915 -0.6235
   36PEO   C07C24694   2.386   0.690   2.675  0.2961  0.2776 -0.0259
   36PEO   H07D24695   2.456   0.649   2.600  1.9919 -0.5702  1.9090
   36PEO   H07E24696   2.455   0.758   2.726  2.3463  0.0978 -2.3560
   36PEO   O07F24697   2.345   0.587   2.765 -0.4989  0.3580  0.6008
   36PEO   H08024698   2.415   0.467   2.922  2.1735  0.9771  1.1791
   36PEO   H08124699   2.500   0.615   2.908  1.7780  1.0548 -2.7889
   36PEO   C08224700   2.450   0.538   2.846 -0.2596  0.4609 -0.5674
   36PEO   C08324701   2.565   0.477   2.761 -1.5423 -0.0371 -0.6399
   36PEO   H08424702   2.605   0.556   2.696 -1.9071 -1.0758 -2.1728
   36PEO   H08524703   2.644   0.452   2.833  0.0093  2.4415 -1.3445
   36PEO   O08624704   2.526   0.363   2.680 -0.3155  0.3171  0.0130
   36PEO   H08724705   2.735   0.289   2.624 -0.0572 -0.8182 -1.0467
   36PEO   H08824706   2.640   0.364   2.493 -1.6058  0.5094 -0.4913
   36PEO   C08924707   2.633   0.306   2.586 -0.1155  0.6048 -0.3067
   36PEO   C08A24708   2.588   0.167   2.549  0.2125 -0.5644  0.0360
   36PEO   H08B24709   2.666   0.092   2.530  1.7092  1.2231 -1.1914
   36PEO   H08C24710   2.527   0.119   2.627  0.8533  1.3514  1.8072
   36PEO   O08D24711   2.502   0.174   2.428 -0.1737 -0.0079 -0.1754
   36PEO   H08E24712   2.354   0.041   2.349  0.0367 -0.7353 -0.6846
   36PEO   H08F24713   2.420  -0.012   2.499  0.5804 -2.1893 -0.9042
   36PEO   C09024714   2.449   0.040   2.406 -0.5351  1.0788  0.4115
   36PEO   C09124715   2.542  -0.057   2.329 -0.7123 -0.4660  0.9880
   36PEO   H09224716   2.488  -0.133   2.270 -0.4344 -1.3112  1.7916
   36PEO   H09324717   2.608  -0.001   2.262 -0.1581 -1.8925  0.2936
   36PEO   O09424718   2.629  -0.137   2.416  0.0832  0.2161  0.1617
   36PEO   H09524719   2.758  -0.187   2.267  1.0680  1.2284  1.3193
   36PEO   H09624720   2.620  -0.307   2.298 -0.0067 -1.6081  1.8693
   36PEO   C09724721   2.695  -0.240   2.341  0.2982 -0.4017 -0.4095
   36PEO   C09824722   2.782  -0.313   2.443 -0.1716 -0.7278 -0.4359
   36PEO   H09924723   2.749  -0.301   2.547  1.0104  0.1747 -0.1431
   36PEO   H09A24724   2.765  -0.418   2.415 -0.2830 -0.0378 -3.3082
   36PEO   O09B24725   2.918  -0.286   2.434 -0.2184 -0.0145 -0.1177
   36PEO   H09C24726   2.916  -0.242   2.645  0.1888  1.2813  0.6952
   36PEO   H09D24727   2.969  -0.114   2.540  0.5253  0.5723  0.7229
   36PEO   C09E24728   2.971  -0.224   2.551 -0.8718  0.4297 -0.1363
   36PEO   C09F24729   3.121  -0.257   2.568  0.2754  0.1020 -0.3478
   36PEO   H0A024730   3.169  -0.177   2.626 -1.1253  1.3615 -0.8464
   36PEO   H0A124731   3.124  -0.357   2.614 -1.3066 -1.0612 -2.5657
   36PEO   O0A224732   3.194  -0.270   2.451 -0.4020  0.6035 -0.9094
   36PEO   H0A324733   3.356  -0.361   2.556  0.1507  0.8238  2.1028
   36PEO   H0A424734   3.373  -0.195   2.523 -1.8621  2.3371 -1.5793
   36PEO   C0A524735   3.337  -0.288   2.476  0.3921 -0.1287  1.1535
   36PEO   C0A624736   3.403  -0.317   2.341 -0.5478 -0.6872  0.6534
   36PEO   H0A724737   3.377  -0.242   2.266  0.1687 -1.0948 -0.0208
   36PEO   H0A824738   3.513  -0.316   2.346 -0.2458 -0.5000 -3.1088
   36PEO   O0A924739   3.372  -0.438   2.284  0.9407 -0.1777 -0.0143
   36PEO   H0AA24740   3.518  -0.445   2.132 -0.2380  3.6780 -0.2329
   36PEO   H0AB24741   3.360  -0.412   2.080 -0.2631  1.1980  1.3218
   36PEO   C0AC24742   3.414  -0.473   2.154  0.5932  0.4930  0.1419
   36PEO   C0AD24743   3.392  -0.630   2.122 -0.3419  0.1739 -0.1513
   36PEO   H0AE24744   3.296  -0.659   2.167 -0.5957  1.2641  0.0406
   36PEO   H0AF24745   3.389  -0.641   2.012 -0.3018 -1.9240  0.0239
   36PEO   O0B024746   3.515  -0.705   2.167  0.4921  0.4173  0.2643
   36PEO   H0B124747   3.384  -0.866   2.181  0.5476 -0.7792  0.3033
   36PEO   H0B224748   3.547  -0.920   2.190 -1.9185 -0.2458  3.3469
   36PEO   C0B324749   3.484  -0.844   2.141  0.4993  0.2704  0.7427
   36PEO   C0B424750   3.467  -0.882   1.992 -0.0146  0.6402  0.6514
   36PEO   H0B524751   3.407  -0.974   1.987  1.8841 -0.6116 -2.7297
   36PEO   H0B624752   3.409  -0.811   1.931 -1.0898  0.9327  1.9771
   36PEO   O0B724753   3.593  -0.909   1.918 -0.3204  1.0949 -0.5859
   36PEO   H0B824754   3.560  -0.865   1.719 -3.6509 -2.3945 -2.1464
   36PEO   H0B924755   3.484  -1.016   1.783  1.2367 -1.5373  1.1864
   36PEO   C0BA24756   3.574  -0.953   1.784  0.1493  0.0793  0.7829
   36PEO   C0BB24757   3.694  -1.038   1.743  0.3068  0.0839  0.5886
   36PEO   H0BC24758   3.726  -1.087   1.836  1.2618  2.5760  1.6513
   36PEO   H0BD24759   3.672  -1.112   1.664  4.0327  1.6871 -2.2342
   36PEO   O0BE24760   3.797  -0.944   1.695  0.6746 -0.6354 -0.4412
   36PEO   H0BF24761   3.942  -1.089   1.695 -0.9432  0.9835 -3.3487
   36PEO   H0C024762   3.920  -0.984   1.852 -2.5262  2.7256 -0.2508
   36PEO   C0C124763   3.923  -0.991   1.742  0.4744 -0.1735 -0.1282
   36PEO   C0C224764   4.035  -0.901   1.686 -0.0639  0.2875  0.6038
   36PEO   H0C324765   4.136  -0.945   1.684 -0.4505 -0.6185  0.5651
   36PEO   H0C424766   4.016  -0.888   1.578 -0.3042  1.7444  0.8107
   36PEO   O0C524767   4.036  -0.782   1.764 -0.3221 -0.0940 -0.9915
   36PEO   H0C624768   4.122  -0.672   1.606  0.2255  0.9913  0.0237
   36PEO   H0C724769   4.231  -0.700   1.740  0.3174  0.3387  0.8598
   36PEO   C0C824770   4.126  -0.677   1.716  0.2229 -0.9373 -0.0314
   36PEO   C0C924771   4.087  -0.537   1.778  0.3557 -0.1466 -0.9236
   36PEO   H0CA24772   4.108  -0.528   1.886 -1.9833 -0.0621 -0.4257
   36PEO   H0CB24773   4.155  -0.466   1.730 -0.6843  0.2598 -1.8439
   36PEO   O0CC24774   3.949  -0.502   1.749  0.5262 -0.0095 -0.5697
   36PEO   H0CD24775   3.957  -0.295   1.742 -2.8216  1.0213 -0.8199
   36PEO   H0CE24776   3.906  -0.370   1.899  0.9533 -2.1873  0.3457
   36PEO   C0CF24777   3.898  -0.375   1.790 -1.0931  0.3556  0.2868
   36PEO   C0D024778   3.750  -0.377   1.752 -0.6514  0.3250  0.5409
   36PEO   H0D124779   3.719  -0.273   1.770  1.7820  1.0210  1.0944
   36PEO   H0D224780   3.729  -0.393   1.645  0.5717  0.5869  0.2524
   36PEO   O0D324781   3.665  -0.455   1.841  0.3859 -0.0935  0.2623
   36PEO   H0D424782   3.607  -0.645   1.886  0.0350  1.5450  1.2678
   36PEO   H0D524783   3.716  -0.623   1.740 -0.0404 -0.7616 -0.2407
   36PEO   C0D624784   3.632  -0.583   1.799  1.0599  0.3172  0.6544
   36PEO   C0D724785   3.504  -0.557   1.710 -0.0746 -0.9468  0.2340
   36PEO   H0D824786   3.519  -0.469   1.645 -2.4490 -0.3571  0.3945
   36PEO   H0D924787   3.478  -0.645   1.649  0.4742 -0.3865 -0.8621
   36PEO   O0DA24788   3.406  -0.519   1.804  0.0079 -0.1415  0.5278
   36PEO   H0DB24789   3.253  -0.537   1.652 -0.7015  1.1474 -0.2147
   36PEO   H0DC24790   3.265  -0.384   1.728 -1.1005  0.3585  1.3633
   36PEO   C0DD24791   3.276  -0.491   1.750  0.0615  0.1844  0.0669
   36PEO   C0DE24792   3.168  -0.543   1.849 -0.2206  0.2243 -0.0151
   36PEO   H0DF24793   3.188  -0.516   1.954 -0.9887 -0.6709  0.3729
   36PEO   H0E024794   3.069  -0.502   1.827 -0.5959  0.9835  2.7600
   36PEO   O0E124795   3.163  -0.682   1.827  0.3469  0.2956  0.4840
   36PEO   H0E224796   2.992  -0.684   1.940 -0.3267  0.4151 -2.6522
   36PEO   H0E324797   3.140  -0.744   2.020  0.7411  1.1695 -1.0098
   36PEO   C0E424798   3.085  -0.741   1.925 -0.0730  0.1896 -0.5842
   36PEO   C0E524799   3.059  -0.882   1.880 -0.2427  0.0643 -0.6895
   36PEO   H0E624800   2.964  -0.922   1.920  0.8475 -0.6240  1.3191
   36PEO   H0E724801   3.037  -0.887   1.772 -0.4206 -2.0095 -0.5837
   36PEO   O0E824802   3.166  -0.956   1.926  0.4007 -0.4569  0.0287
   36PEO   H0E924803   3.264  -1.140   1.884  0.4554  1.6802  0.8526
   36PEO   H0EA24804   3.166  -1.074   1.756 -0.3143 -1.3333 -0.2717
   36PEO   C0EB24805   3.170  -1.086   1.865 -0.0409  0.5553 -0.0417
   36PEO   C0EC24806   3.060  -1.190   1.914  0.2954 -0.0902  0.0327
   36PEO   H0ED24807   3.100  -1.287   1.881  1.0757  0.7813 -1.7256
   36PEO   H0EE24808   3.065  -1.183   2.024 -1.2900 -2.5780  0.3505
   36PEO   O0EF24809   2.929  -1.160   1.862 -0.0561  0.0205 -0.3140
   36PEO   H0F024810   2.858  -1.248   2.030 -1.2831 -2.4613 -0.2348
   36PEO   H0F124811   2.800  -1.323   1.874  1.8724  0.5455 -1.7609
   36PEO   C0F224812   2.823  -1.229   1.927 -0.1829  0.2520 -0.1939
   36PEO   C0F324813   2.694  -1.145   1.919  0.0367  0.0980  0.0056
   36PEO   H0F424814   2.673  -1.133   1.812  0.4394 -2.3271 -0.4168
   36PEO   H0F524815   2.615  -1.210   1.959 -1.5757  1.7266 -0.4045
   36PEO   O0F624816   2.706  -1.033   2.002  0.1210  0.0195 -0.0997
   36PEO   H0F724817   2.507  -0.977   2.030  1.0267 -2.8762  0.2775
   36PEO   H0F824818   2.577  -0.923   1.871  2.0926  1.9054 -0.8638
   36PEO   C0F924819   2.596  -0.939   1.978 -0.6340  0.2446 -0.5150
   36PEO   C0FA24820   2.629  -0.796   2.039 -0.0414  0.2592 -0.4789
   36PEO   H0FB24821   2.713  -0.748   1.987 -1.1677 -0.3318 -2.9923
   36PEO   H0FC24822   2.535  -0.745   2.014 -0.5239 -1.3183 -2.1365
   36PEO   O0FD24823   2.644  -0.802   2.185  0.0235  0.4446  0.4560
   36PEO   H0FE24824   2.587  -0.615   2.204 -0.2673  0.3535 -0.3970
   36PEO   H0FF24825   2.764  -0.630   2.220 -0.1195 -1.8358 -2.1969
   36PEO   C10024826   2.668  -0.676   2.247 -0.5792  0.3369  0.1780
   36PEO   C10124827   2.638  -0.684   2.396  0.0269  0.2173 -0.2863
   36PEO   H10224828   2.609  -0.582   2.423 -1.2147 -0.3970  0.7567
   36PEO   H10324829   2.552  -0.748   2.419 -0.1937  1.6492  3.5691
   36PEO   O10424830   2.748  -0.719   2.479 -0.3796  0.5398  0.5738
   36PEO   H10524831   2.807  -0.791   2.666 -0.3578 -1.1209 -0.6942
   36PEO   H10624832   2.642  -0.819   2.640  0.4460  0.8400  1.7249
   36PEO   C10724833   2.719  -0.743   2.619  0.3008  0.4744 -0.3623
   36PEO   C10824834   2.670  -0.613   2.681 -0.2279 -0.0559 -0.2750
   36PEO   H10924835   2.686  -0.531   2.609 -0.3299  0.7409  0.5873
   36PEO   H10A24836   2.563  -0.621   2.703  0.1992 -1.1350  1.6435
   36PEO   O10B24837   2.752  -0.591   2.798  0.4552  1.3246  0.2215
   36PEO   H10C24838   2.855  -0.438   2.719  1.5076 -0.5457 -0.3865
   36PEO   H10D24839   2.929  -0.600   2.702  1.9671  1.3498  0.0593
   36PEO   C10E24840   2.874  -0.533   2.770 -0.2796 -0.5798  0.2990
   36PEO   C10F24841   2.929  -0.504   2.908  0.2149 -0.3140  0.7473
   36PEO   H11024842   2.922  -0.592   2.973 -1.0327 -2.6562 -2.2973
   36PEO   H11124843   3.034  -0.474   2.896 -0.4418  0.8873 -4.4247
   36PEO   O11224844   2.867  -0.391   2.966  0.9052 -0.4135  0.9776
   36PEO   H11324845   2.722  -0.482   3.093  0.4719  0.6414  1.2439
   36PEO   H11424846   2.661  -0.429   2.937  1.3766 -1.4656 -0.8139
   36PEO   C11524847   2.732  -0.402   3.018 -0.6896  0.1570  0.5567
   36PEO   C11624848   2.704  -0.262   3.080  0.3359  0.6491 -0.7470
   36PEO   H11724849   2.629  -0.273   3.160  1.3632 -0.3289  0.1062
   36PEO   H11824850   2.793  -0.223   3.132 -0.3897 -0.6341  1.6068
   36PEO   O11924851   2.654  -0.161   2.989  0.4412  0.0615  0.7959
   36PEO   H11A24852   2.816  -0.190   2.866 -1.4416 -0.2162  0.1779
   36PEO   H11B24853   2.844  -0.049   2.976 -0.2608 -0.0162 -0.0372
   36PEO   C11C24854   2.769  -0.105   2.917 -0.5155  0.6071 -0.3085
   36PEO   C11D24855   2.708  -0.010   2.811  0.3319 -0.0836 -0.7113
   36PEO   H11E24856   2.789  -0.010   2.736  1.3074 -1.2847  0.3022
   36PEO   H11F24857   2.615  -0.059   2.779  0.6767 -1.5567  0.4817
   36PEO   O12024858   2.684   0.112   2.886 -0.8759  0.6627  0.3081
   36PEO   H12124859   2.524   0.031   3.009  1.7242 -0.6044  0.8741
   36PEO   H12224860   2.473   0.093   2.855 -0.7379 -4.0744  1.0755
   36PEO   C12324861   2.547   0.109   2.935 -0.2618 -0.7000  0.1139
   36PEO   C12424862   2.521   0.239   3.019  0.1919  0.6322  0.6184
   36PEO   H12524863   2.561   0.326   2.964  0.1121 -0.0159 -0.4869
   36PEO   H12624864   2.412   0.249   3.028  0.3029  1.7562  0.8574
   36PEO   O12724865   2.582   0.233   3.154 -0.3125 -0.4412  0.3153
   36PEO   H12824866   2.634   0.428   3.144  0.8460  0.9424  2.6384
   36PEO   H12924867   2.762   0.329   3.080  0.1356 -1.2633 -0.0767
   36PEO   C12A24868   2.689   0.335   3.161  0.5256  0.2467  0.1965
   36PEO   C12B24869   2.763   0.330   3.301  0.6592 -0.2212  0.3152
   36PEO   H12C24870   2.818   0.424   3.317  0.9655 -0.4040  0.3336
   36PEO   H12D24871   2.690   0.330   3.384  1.0985  0.7941  0.7270
   36PEO   O12E24872   2.853   0.220   3.302  0.2132  0.2023  0.4226
   36PEO   H12F24873   2.872   0.006   3.320  0.8682  0.5373 -1.0442
   36PEO   H13024874   2.701   0.069   3.298 -0.5596 -1.4541  0.9145
   36PEO   C13124875   2.801   0.088   3.340  0.0622 -0.1611 -0.9823
   36PEO   C13224876   2.794   0.087   3.495 -0.3552  0.3924  0.8769
   36PEO   H13324877   2.750   0.180   3.534 -0.5798  0.5731  0.2122
   36PEO   H13424878   2.736   0.000   3.529 -0.3674 -0.3337 -0.9033
   36PEO   O13524879   2.926   0.057   3.544  0.2711 -0.1631  0.1439
   36PEO   H13624880   2.948   0.209   3.693 -3.7709  1.0812 -1.2203
   36PEO   H13724881   3.053   0.077   3.720 -0.7249 -0.8675  0.2780
   36PEO   C13824882   2.952   0.100   3.682 -0.1456  0.9870 -0.2870
   36PEO   C13924883   2.861   0.038   3.786 -0.7603 -0.1851 -0.0969
   36PEO   H13A24884   2.885   0.092   3.879  0.9254 -1.3793  0.2162
   36PEO   H13B24885   2.756   0.054   3.761  0.0411 -0.7286 -4.6439
   36PEO   O13C24886   2.885  -0.106   3.799 -0.5486 -0.6503 -0.3276
   36PEO   H13D24887   2.715  -0.156   3.913  0.0426 -0.7592  0.6155
   36PEO   H13E24888   2.848  -0.087   4.007 -0.4586 -1.3738  1.3110
   36PEO   C13F24889   2.825  -0.151   3.921  0.0614  0.1534 -0.0171
   36PEO   C14024890   2.886  -0.289   3.950  1.2720 -0.2715 -0.8329
   36PEO   H14124891   2.824  -0.329   4.031  1.1250  0.9617 -0.3155
   36PEO   H14224892   2.891  -0.355   3.862  1.1574  0.3704 -1.3328
   36PEO   O14324893   3.014  -0.262   4.000 -0.4722 -0.4113  0.1164
   36PEO   H14424894   3.212  -0.336   3.994  0.9527  0.8093 -1.5335
   36PEO   H14524895   3.099  -0.430   3.909  1.7460  1.2084  0.2361
   36PEO   C14624896   3.108  -0.371   4.001  1.0787  0.7460  0.5949
   36PEO   C14724897   3.085  -0.468   4.118  0.9989  0.4250 -0.1064
   36PEO   H14824898   3.175  -0.528   4.141  1.3560  0.9341 -0.1550
   36PEO   H14924899   3.065  -0.405   4.205  0.9094  1.0012 -0.5347
   36PEO   O14A24900   2.970  -0.551   4.090  0.0402  0.0594  0.7592
   36PEO   H14B24901   2.942  -0.679   4.257  2.2958  1.7375  0.2592
   36PEO   H14C24902   3.050  -0.739   4.132 -1.1909 -1.7772 -2.3493
   36PEO   C14D24903   2.957  -0.682   4.148  0.6193  0.7769  0.0051
   36PEO   C14E24904   2.842  -0.756   4.093  0.0885  0.2150  0.1235
   36PEO   H14F24905   2.846  -0.864   4.116 -2.6421 -0.6036 -2.6440
   36PEO   H15024906   2.747  -0.723   4.138 -0.2854  0.3232 -0.7350
   36PEO   O15124907   2.834  -0.735   3.950 -0.4343 -0.1294  0.2911
   36PEO   H15224908   3.043  -0.780   3.895  1.1130 -1.6656 -0.7134
   36PEO   H15324909   2.917  -0.776   3.768 -1.5979  1.6314  1.5630
   36PEO   C15424910   2.939  -0.808   3.871  0.3657 -0.2088  0.6335
   36PEO   C15524911   2.900  -0.954   3.874 -0.2817 -0.2435  0.1203
   36PEO   H15624912   2.796  -0.956   3.909 -0.0378  0.5366  0.9407
   36PEO   H15724913   2.921  -1.000   3.777 -1.5621  1.9130 -1.2483
   36PEO   O15824914   2.982  -1.016   3.978 -0.4189  0.8575 -0.0767
   36PEO   H15924915   3.015  -1.212   3.904  2.5250 -2.8162  2.8640
   36PEO   H15A24916   2.864  -1.177   3.987  0.5352 -0.6774  1.8636
   36PEO   C15B24917   2.972  -1.155   3.988  0.4151  0.2010  0.0246
   36PEO   C15C24918   3.026  -1.204   4.128  0.1975  0.0910  0.1880
   36PEO   H15D24919   2.969  -1.147   4.202  1.0748  0.4082  0.6331
   36PEO   H15E24920   3.003  -1.309   4.150 -0.7629 -0.2770 -2.2214
   36PEO   O15F24921   3.170  -1.196   4.124 -1.0056  0.0197 -0.1684
   36PEO   H16024922   3.183  -1.004   4.192  2.1313 -1.2643  2.4419
   36PEO   H16124923   3.211  -1.033   4.012 -0.7548  0.1704  0.0719
   36PEO   C16224924   3.228  -1.068   4.115  0.8137  0.5829 -0.0311
   36PEO   C16324925   3.379  -1.081   4.147  0.4241 -0.3240  0.1282
   36PEO   H16424926   3.412  -1.172   4.094 -0.7826 -1.7965  1.8053
   36PEO   H16524927   3.432  -0.992   4.111  0.9524 -1.6167 -2.5436
   36PEO   O16624928   3.380  -1.102   4.287 -0.1923 -0.1850  0.2170
   36PEO   H16724929   3.490  -1.071   4.464 -1.9203  1.6194 -0.8783
   36PEO   H16824930   3.564  -1.014   4.312  2.3324 -2.2918 -0.8870
   36PEO   C16924931   3.505  -1.095   4.358 -0.4065 -0.1248 -0.3287
   36PEO   C16A24932   3.585  -1.224   4.326 -0.0544  0.4642 -0.2084
   36PEO   H16B24933   3.608  -1.249   4.222  1.4022  1.9850 -0.2959
   36PEO   H16C24934   3.682  -1.215   4.378 -0.2998 -0.3750  0.4176
   36PEO   O16D24935   3.532  -1.348   4.384  0.2228  0.5005  0.2946
   36PEO   H16E24936   3.383  -1.369   4.240 -0.6500 -0.6797 -0.1091
   36PEO   H16F24937   3.327  -1.314   4.403 -0.0109  0.2680  0.8458
   36PEO   C17024938   3.394  -1.383   4.349 -0.1192  0.7706  0.0555
   36PEO   C17124939   3.361  -1.525   4.396  0.0456 -1.1379  0.0679
   36PEO   H17224940   3.375  -1.529   4.505 -2.2161  2.1848  0.6336
   36PEO   H17324941   3.252  -1.528   4.382 -0.3281  3.2134  0.5763
   36PEO   O17424942   3.423  -1.621   4.315  0.0837 -0.2944 -0.0204
   36PEO   H17524943   3.269  -1.759   4.345 -1.3318  1.8534  0.7024
   36PEO   H17624944   3.388  -1.757   4.473  0.9903 -1.3617 -0.7125
   36PEO   C17724945   3.378  -1.753   4.363 -0.9904  0.0700 -0.5255
   36PEO   C17824946   3.459  -1.867   4.300 -0.6786  0.5599 -0.9846
   36PEO   H17924947   3.398  -1.958   4.302 -0.8676  0.6942  0.4926
   36PEO   H17A24948   3.474  -1.832   4.197  1.0241  1.6734 -0.3998
   36PEO   O17B24949   3.584  -1.866   4.374  0.1654  0.2800 -0.1920
   36PEO   H17C24950   3.711  -1.906   4.221  1.0684 -0.8226  0.1714
   36PEO   H17D24951   3.677  -2.050   4.305  1.8708 -0.2709 -1.6028
   36PEO   C17E24952   3.694  -1.943   4.323 -0.1893 -0.1931  0.2050
   36PEO   C17F24953   3.821  -1.915   4.400 -0.3499 -0.0976 -0.0190
   36PEO   H18024954   3.907  -1.968   4.355 -0.3943  0.8887 -1.3680
   36PEO   H18124955   3.834  -1.805   4.403 -2.4450  0.1660  0.6496
   36PEO   O18224956   3.817  -1.952   4.536  0.0458 -0.2447 -0.2946
   36PEO   H18324957   3.904  -2.129   4.479  0.8946  0.1012  0.5794
   36PEO   H18424958   3.734  -2.142   4.545  0.0751 -1.1275 -0.4038
   36PEO   C18524959   3.832  -2.094   4.555 -0.4303 -0.0337 -0.5762
   36PEO   C18624960   3.886  -2.140   4.690 -0.1326 -0.5241 -0.0149
   36PEO   H18724961   3.856  -2.072   4.770  1.3408 -1.1905  1.1624
   36PEO   H18824962   3.832  -2.232   4.716 -0.2716 -1.1762 -2.3335
   36PEO   O18924963   4.024  -2.173   4.686 -0.3927  0.6745 -0.1031
   36PEO   H18A24964   3.996  -2.305   4.528  0.0139 -0.2300  0.0670
   36PEO   H18B24965   4.072  -2.374   4.662 -2.6496  0.1475 -0.9727
   36PEO   C18C24966   4.073  -2.282   4.602  0.6031  0.3765 -0.7168
   36PEO   C18D24967   4.203  -2.233   4.539  1.0109  0.4242  0.4294
   36PEO   H18E24968   4.280  -2.231   4.617 -0.8070  0.5672  2.2933
   36PEO   H18F24969   4.221  -2.313   4.466 -0.8427 -0.5604  0.9732
   36PEO   O19024970   4.176  -2.113   4.472  0.0423  0.6332 -0.0932
   36PEO   H19124971   4.334  -2.071   4.331  0.8054  2.1328 -0.6615
   36PEO   H19224972   4.352  -2.023   4.491  0.0793 -1.6349  0.2968
   36PEO   C19324973   4.274  -2.032   4.414  0.1464 -0.2269  0.0456
   36PEO   C19424974   4.216  -1.893   4.378 -1.0943  0.0919 -0.0483
   36PEO   H19524975   4.293  -1.848   4.313  0.5177 -0.2834  1.5070
   36PEO   H19624976   4.123  -1.902   4.321 -0.2995  0.5988 -1.4956
   36PEO   O19724977   4.205  -1.834   4.512  0.0592  0.1511 -0.0121
   36PEO   H19824978   4.058  -1.694   4.461  0.4508 -1.5812 -2.0926
   36PEO   H19924979   4.224  -1.634   4.444 -0.4310 -1.7576 -1.2017
   36PEO   C19A24980   4.158  -1.695   4.507 -0.3530 -0.8714 -0.2437
   36PEO   C19B24981   4.150  -1.635   4.643 -0.0181 -0.5613 -0.3078
   36PEO   H19C24982   4.087  -1.546   4.637  0.3203 -0.3413 -0.6437
   36PEO   H19D24983   4.104  -1.712   4.708  3.2149 -1.7901  0.7501
   36PEO   O19E24984   4.277  -1.593   4.693 -0.8023  0.0055 -0.5869
   36PEO   H19F24985   4.244  -1.623   4.897 -0.1255  1.2251  1.5252
   36PEO   H1A024986   4.202  -1.456   4.831  3.1021  3.5578 -2.0169
   36PEO   C1A124987   4.271  -1.542   4.828 -0.5423  0.1825  0.0789
   36PEO   C1A224988   4.415  -1.491   4.855 -0.4854  0.3952 -0.3900
   36PEO   H1A324989   4.450  -1.444   4.761 -0.0972  1.3891  0.2357
   36PEO   H1A424990   4.409  -1.426   4.943 -0.2973  2.3253 -1.7400
   36PEO   O1A524991   4.499  -1.601   4.894  0.1557  0.3791  0.2649
   36PEO   H1A624992   4.620  -1.623   4.712  1.6997  0.5660  2.6841
   36PEO   H1A724993   4.517  -1.758   4.732  1.4803  0.3184 -3.0877
   36PEO   C1A824994   4.570  -1.682   4.790 -0.3748 -0.8780  0.4421
   36PEO   C1A924995   4.669  -1.761   4.871 -0.2404  0.2436 -0.3858
   36PEO   H1AA24996   4.637  -1.793   4.971  1.6666  0.7821  0.4576
   36PEO   H1AB24997   4.703  -1.851   4.818 -1.4216 -1.4757  1.6521
   36PEO   O1AC24998   4.783  -1.679   4.898 -0.8900 -0.3400 -0.2097
   36PEO   H1AD24999   4.818  -1.751   5.092 -0.3320 -3.1813 -0.4557
   36PEO   H1AE25000   4.932  -1.622   5.029 -0.5123  0.2822 -3.0235
   36PEO   C1AF25001   4.877  -1.714   5.007 -0.2392 -0.8890  0.5184
   36PEO   C1B025002   4.976  -1.820   4.958  0.3115 -0.2318  0.1073
   36PEO   H1B125003   5.034  -1.780   4.873 -2.3197  0.8522 -1.3031
   36PEO   H1B225004   5.053  -1.834   5.035 -2.3316  1.4646  3.3432
   36PEO   O1B325005   4.910  -1.932   4.919  0.6639  0.8716 -0.5089
   36PEO   H1B425006   4.864  -1.952   5.117  0.7126  2.3600 -0.7507
   36PEO   H1B525007   4.983  -2.063   5.063  0.8604  1.0232 -0.3196
   36PEO   C1B625008   4.887  -2.019   5.033  0.3058  0.4588  0.5919
   36PEO   C1B725009   4.770  -2.119   5.009 -0.7320 -1.4169 -0.2250
   36PEO   H1B825010   4.769  -2.189   4.924  0.6453 -3.3262  1.2466
   36PEO   H1B925011   4.764  -2.185   5.097 -1.3163 -3.5819 -1.8133
   36PEO   O1BA25012   4.652  -2.034   5.001  0.1547  0.0483 -0.0877
   36PEO   H1BB25013   4.529  -2.074   5.170 -0.8948 -2.2563 -0.4079
   36PEO   H1BC25014   4.523  -2.182   5.028 -0.2957  0.6886 -1.8154
   36PEO   C1BD25015   4.535  -2.078   5.060  0.2774  0.2397 -0.4994
   36PEO   C1BE25016   4.410  -2.000   5.000 -1.4874 -0.3702  0.2948
   36PEO   H1BF25017   4.320  -1.994   5.062 -2.6640 -1.9492 -1.1484
   36PEO   H1C025018   4.437  -1.894   5.000 -2.5851 -0.0643  2.2248
   36PEO   O1C125019   4.390  -2.055   4.865  0.2033  0.2019  0.6548
   36PEO   H1C225020   4.297  -2.002   4.680  0.0633 -0.8507  1.0114
   36PEO   H1C325021   4.353  -1.865   4.784  1.4348 -0.1513 -0.6793
   36PEO   C1C425022   4.310  -1.966   4.783  0.1728  0.3332  0.5968
   36PEO   C1C525023   4.161  -1.961   4.824  0.1532  0.4770 -0.7771
   36PEO   H1C625024   4.092  -1.955   4.738 -1.3243 -1.1706  0.2163
   36PEO   H1C725025   4.146  -2.059   4.870  4.3782  0.2694  0.5873
   36PEO   O1C825026   4.141  -1.870   4.927 -0.0101 -0.2453 -0.3190
   36PEO   H1C925027   4.018  -1.971   5.035  0.5054 -0.8886 -1.6146
   36PEO   H1CA25028   3.935  -1.861   4.920  1.4423  1.8684 -1.1447
   36PEO   C1CB25029   4.019  -1.871   4.990 -0.0188  0.1214  0.4766
   36PEO   C1CC25030   4.016  -1.757   5.094 -0.1427  0.4318 -0.2467
   36PEO   H1CD25031   3.932  -1.772   5.164 -0.9582 -0.0443 -1.3076
   36PEO   H1CE25032   4.111  -1.755   5.150  0.5093 -2.1019 -1.1400
   36PEO   O1CF25033   4.002  -1.633   5.023 -0.2536 -0.0830  0.3162
   36PEO   H1D025034   4.015  -1.418   5.039 -1.1909  0.4894  0.5723
   36PEO   H1D125035   4.124  -1.511   5.147  0.4867 -0.7390  0.5738
   36PEO   C1D225036   4.024  -1.507   5.102  0.6430  0.4477  0.2991
   36PEO   C1D325037   3.919  -1.505   5.214 -0.3070 -0.2925  0.0023
   36PEO   H1D425038   3.917  -1.398   5.240  1.8133  0.0549 -1.0223
   36PEO   H1D525039   3.817  -1.529   5.180 -0.1521  1.5643 -2.0261
   36PEO   O1D625040   3.950  -1.575   5.328 -0.0323 -0.1923 -0.1171
   36PEO   H1D725041   3.751  -1.618   5.390  1.1402 -2.3296 -1.4895
   36PEO   H1D825042   3.813  -1.469   5.452 -0.8452 -0.9708  1.4428
   36PEO   C1D925043   3.843  -1.571   5.426 -0.2677 -0.4396 -0.1385
   36PEO   C1DA25044   3.870  -1.653   5.546 -0.4354  0.2923 -0.0276
   36PEO   H1DB25045   3.779  -1.669   5.605 -1.1580 -0.2051 -1.2279
   36PEO   H1DC25046   3.915  -1.751   5.523  1.4567  1.1112  0.0109
   36PEO   O1DD25047   3.965  -1.580   5.613 -0.1344 -0.7776 -0.4368
   36PEO   H1DE25048   4.096  -1.717   5.701  1.3890  1.4504 -1.1907
   36PEO   H1DF25049   3.942  -1.680   5.790  1.0799  1.1590  1.7563
   36PEO   C1E025050   4.023  -1.640   5.728  0.2847  0.0786 -0.0584
   36PEO   C1E125051   4.112  -1.546   5.816  0.5787  0.2293  0.2238
   36PEO   H1E225052   4.078  -1.442   5.802 -2.0502 -0.6270 -0.3751
   36PEO   H1E325053   4.118  -1.586   5.918 -0.2148 -1.1645 -0.2507
   36PEO   O1E425054   4.241  -1.553   5.769 -0.6615  0.1799  0.1120
   36PEO   H1E525055   4.227  -1.374   5.659 -1.5475 -0.6590  2.0136
   36PEO   H1E625056   4.212  -1.504   5.551 -0.9523 -0.3297  0.0391
   36PEO   C1E725057   4.266  -1.476   5.643 -0.4998  0.0427 -0.3334
   36PEO   C1E825058   4.415  -1.488   5.614  0.1603 -0.0455 -0.4446
   36PEO   H1E925059   4.448  -1.593   5.614  0.4769  0.0466  0.0400
   36PEO   H1EA25060   4.432  -1.460   5.509  0.8159 -2.3286 -1.0113
   36PEO   O1EB25061   4.494  -1.412   5.710 -0.0061  0.1833  0.3819
   36PEO   H1EC25062   4.381  -1.242   5.762  0.5796  1.8771 -1.3680
   36PEO   H1ED25063   4.472  -1.227   5.612 -0.3988  2.0358  0.3865
   36PEO   C1EE25064   4.474  -1.271   5.713  0.1258 -0.8694 -0.7936
   36PEO   C1EF25065   4.591  -1.202   5.799 -0.7240  0.6918 -0.4533
   36PEO   H1F025066   4.684  -1.260   5.807 -1.1618  0.0112 -0.2044
   36PEO   H1F125067   4.617  -1.109   5.746 -0.3922  0.6318 -0.3992
   36PEO   O1F225068   4.551  -1.173   5.932 -0.4560  0.6051  0.0712
   36PEO   H1F325069   4.565  -1.363   6.015  2.9656  3.1733 -2.9514
   36PEO   H1F425070   4.398  -1.326   5.958 -1.2326  0.8957  1.2521
   36PEO   C1F525071   4.488  -1.285   6.005 -0.3542  0.6112 -0.1158
   36PEO   C1F625072   4.425  -1.227   6.129  0.3020 -0.4039 -0.1634
   36PEO   H1F725073   4.350  -1.148   6.114 -0.3515 -0.5389  2.0215
   36PEO   H1F825074   4.368  -1.309   6.175 -1.5033 -0.2266 -1.9833
   36PEO   O1F925075   4.537  -1.189   6.214  0.3128 -0.0787  0.4562
   36PEO   H1FA25076   4.620  -1.161   6.404  0.3592  0.0117 -0.6378
   36PEO   H1FB25077   4.456  -1.197   6.420  2.1666  0.9217  3.3585
   36PEO   C1FC25078   4.525  -1.145   6.352 -0.0322 -0.1822  0.0087
   36PEO   C1FD25079   4.502  -0.995   6.349  0.5100  0.7084  0.5346
   36PEO   H1FE25080   4.522  -0.963   6.452  1.0435 -0.5842  0.8435
   36PEO   H1FF25081   4.569  -0.959   6.270  1.7129 -4.6773 -1.2852
   36PEO   O20025082   4.364  -0.966   6.306  0.3516 -0.2931  0.9856
   36PEO   H20125083   4.241  -1.050   6.465  0.0720 -1.3929  0.9105
   36PEO   H20225084   4.271  -1.154   6.337  0.6817  0.0703  2.5634
   36PEO   C20325085   4.250  -1.048   6.355 -0.5526  0.1719  0.8581
   36PEO   C20425086   4.111  -1.009   6.292 -0.9808 -0.2688 -0.6139
   36PEO   H20525087   4.039  -1.070   6.347 -1.4601  2.1554  1.6488
   36PEO   H20625088   4.082  -0.904   6.308 -1.5897 -0.5939  0.5021
   36PEO   O20725089   4.102  -1.031   6.147  0.2454  0.2944  0.1140
   36PEO   H20825090   4.272  -0.935   6.097 -0.1537  0.5002  0.5276
   36PEO   H20925091   4.117  -0.833   6.081 -1.6995 -1.2045  4.4998
   36PEO   C20A25092   4.167  -0.930   6.065 -0.2340 -0.0141  0.7019
   36PEO   C20B25093   4.169  -0.965   5.916 -0.5674  0.2713 -0.1357
   36PEO   H20C25094   4.235  -0.899   5.857 -1.8301  0.2653 -1.5963
   36PEO   H20D25095   4.212  -1.066   5.902  2.5383  1.7162 -2.2674
   36PEO   O20E25096   4.031  -0.953   5.877  0.3097  0.3779 -0.3047
   36PEO   H20F25097   3.889  -0.945   5.722 -0.7109 -0.9093 -3.5741
   36PEO   H21025098   4.000  -1.093   5.741 -1.0438  0.3865  0.5299
   36PEO   C21125099   3.989  -0.984   5.745 -0.9216  0.4130  0.1338
   36PEO   C21225100   4.091  -0.916   5.649 -0.3158 -0.2734  1.1969
   36PEO   H21325101   4.038  -0.886   5.557 -0.9082  3.1201  2.4812
   36PEO   H21425102   4.119  -0.815   5.682 -3.0056  1.6248 -1.7440
   36PEO   O21525103   4.205  -1.005   5.634  0.2661 -0.3293 -0.5131
   36PEO   H21625104   4.402  -0.980   5.582 -0.7501 -1.6602  0.3639
   36PEO   H21725105   4.308  -0.834   5.577  0.5233  0.5299 -0.7196
   36PEO   C21825106   4.304  -0.941   5.553 -0.0660  0.2640  0.5033
   36PEO   C21925107   4.273  -0.947   5.402 -0.3001 -0.1831 -0.0098
   36PEO   H21A25108   4.166  -0.936   5.380 -0.6375  0.1860  1.7114
   36PEO   H21B25109   4.329  -0.867   5.351 -1.5844  0.5348 -0.3328
   36PEO   O21C25110   4.322  -1.071   5.349  0.0800 -0.4455 -0.1169
   36PEO   H21D25111   4.158  -1.165   5.421  1.1782  0.5310 -1.1903
   36PEO   H21E25112   4.312  -1.243   5.462  0.8942 -1.9601 -1.2062
   36PEO   C21F25113   4.258  -1.188   5.383  1.1853 -0.6137 -0.5006
   36PEO   C22025114   4.252  -1.281   5.252  0.2565 -0.5041 -0.9941
   36PEO   H22125115   4.353  -1.303   5.214  0.8696 -1.3830  0.9801
   36PEO   H22225116   4.209  -1.377   5.283 -1.3630  0.1020 -1.2752
   36PEO   O22325117   4.161  -1.243   5.140 -0.2130 -0.2289 -0.3717
   36PEO   H22425118   4.307  -1.131   5.044 -0.2446 -0.0844  0.5201
   36PEO   H22525119   4.175  -1.039   5.111 -0.0867  0.1824  0.1800
   36PEO   C22625120   4.197  -1.131   5.055 -0.2923  0.2036  0.0620
   36PEO   C22725121   4.114  -1.123   4.926  0.4368  0.1314 -0.5799
   36PEO   H22825122   4.008  -1.146   4.944 -0.0999  1.3342 -2.0424
   36PEO   H22925123   4.124  -1.018   4.895  2.3725  0.8868  2.1444
   36PEO   O22A25124   4.159  -1.217   4.826  0.2319  0.1534  0.4175
   36PEO   H22B25125   4.010  -1.146   4.699  0.3782 -0.2430 -3.5297
   36PEO   H22C25126   4.004  -1.326   4.741 -0.2716  0.2379  1.2849
   36PEO   C22D25127   4.066  -1.238   4.719 -0.3017 -0.0013  0.1767
   36PEO   C22E25128   4.151  -1.272   4.598 -0.2877 -0.8569 -0.3732
   36PEO   H22F25129   4.227  -1.192   4.591 -0.0778 -0.8226  1.6455
   36PEO   H23025130   4.200  -1.369   4.612  0.5535 -0.1188  2.6007
   36PEO   O23125131   4.060  -1.272   4.488  0.0788  0.4699  0.3199
   36PEO   H23225132   4.182  -1.378   4.370 -0.1023 -0.0195 -0.4833
   36PEO   H23325133   4.222  -1.201   4.365 -2.0098  2.2918 -0.8394
   36PEO   C23425134   4.141  -1.276   4.370  0.0098  0.0321  0.2930
   36PEO   C23525135   4.054  -1.264   4.246  0.0527 -0.3246  0.9027
   36PEO   H23625136   4.109  -1.296   4.157  1.6116 -1.9711  2.3680
   36PEO   H23725137   3.961  -1.321   4.257  0.1478 -0.7318 -0.2664
   36PEO   O23825138   4.022  -1.123   4.240  0.0386  0.3470  0.1048
   36PEO   H23925139   3.873  -1.114   4.080  0.1279  1.8268 -1.1083
   36PEO   H23A25140   4.040  -1.102   4.036 -0.3338  0.4708 -0.8782
   36PEO   C23B25141   3.967  -1.066   4.110  0.2805  1.2529 -0.6459
   36PEO   C23C25142   3.953  -0.912   4.115  0.0252  0.2631 -0.2660
   36PEO   H23D25143   4.037  -0.877   4.178  0.9761 -1.8545 -0.2555
   36PEO   H23E25144   3.962  -0.874   4.012 -1.8873 -0.3389 -0.6847
   36PEO   O23F25145   3.845  -0.863   4.181  0.3415  0.7116 -0.0924
   36PEO   H24025146   3.881  -0.650   4.153 -0.9609  1.3599  0.8378
   36PEO   H24125147   3.902  -0.709   4.318 -1.4096 -1.7473  0.0382
   36PEO   C24225148   3.844  -0.724   4.226 -0.7647 -0.2502 -0.6366
   36PEO   C24325149   3.699  -0.685   4.265  0.5238  0.5514 -0.0085
   36PEO   H24425150   3.649  -0.773   4.309  1.6822 -0.0932  0.0610
   36PEO   H24525151   3.709  -0.602   4.337  2.5262  1.1851 -0.9361
   36PEO   O24625152   3.619  -0.633   4.160 -0.4627  0.7755  0.3505
   36PEO   H24725153   3.450  -0.502   4.183  0.2131  0.2278  0.7890
   36PEO   H24825154   3.451  -0.639   4.297  0.3898 -2.6552 -0.9426
   36PEO   C24925155   3.483  -0.606   4.197  0.1146  0.0463 -0.2159
   36PEO   C24A25156   3.397  -0.699   4.109  0.0296  0.6002  0.1290
   36PEO   H24B25157   3.440  -0.797   4.082 -1.7098 -0.1184 -0.2289
   36PEO   H24C25158   3.307  -0.734   4.161 -0.7160  3.0644  0.6120
   36PEO   O24D25159   3.361  -0.627   3.992  0.5477 -0.0160 -0.6381
   36PEO   H24E25160   3.291  -0.631   3.800  2.1574 -0.2606 -1.3008
   36PEO   H24F25161   3.278  -0.785   3.886 -0.9306  0.4108  0.4364
   36PEO   C25025162   3.343  -0.698   3.870 -0.0454 -0.2278  0.4971
   36PEO   C25125163   3.473  -0.742   3.791 -0.2527  0.2536 -0.4204
   36PEO   H25225164   3.466  -0.753   3.682 -0.8270  0.2792 -0.3881
   36PEO   H25325165   3.562  -0.679   3.810  2.1987 -3.2552  0.7095
   36PEO   O25425166   3.498  -0.871   3.836  0.3872 -0.9435  0.4484
   36PEO   H25525167   3.641  -0.992   3.932 -1.1262  2.9183  3.8969
   36PEO   H25625168   3.685  -0.825   3.928 -0.1613  0.6918 -0.9889
   36PEO   C25725169   3.637  -0.903   3.867  0.0369  0.1207 -0.4304
   36PEO   C25825170   3.717  -0.923   3.737 -0.3729 -0.3134 -0.2062
   36PEO   H25925171   3.813  -0.972   3.758  1.2624  3.2470  1.4578
   36PEO   H25A25172   3.654  -0.990   3.676 -0.9935  1.5415 -1.7450
   36PEO   O25B25173   3.725  -0.800   3.662 -0.1551  0.4976  0.2363
   36PEO   H25C25174   3.803  -0.884   3.486  0.9487  1.0334 -1.2986
   36PEO   H25D25175   3.916  -0.850   3.620 -0.9386 -2.8676  0.5334
   36PEO   C25E25176   3.831  -0.811   3.563  0.0447 -0.4991  0.5785
   36PEO   C25F25177   3.858  -0.671   3.503  0.1445  0.8978  0.5917
   36PEO   H26025178   3.893  -0.595   3.575 -0.1467  0.9193  0.7128
   36PEO   H26125179   3.934  -0.691   3.426  0.1320  2.4062  0.1547
   36PEO   O26225180   3.733  -0.621   3.438 -0.6820 -0.0031 -0.3915
   36PEO   H26325181   3.822  -0.560   3.264 -1.3403  1.8067 -1.5382
   36PEO   H26425182   3.818  -0.443   3.409 -1.3877  1.4543 -0.2093
   36PEO   C26525183   3.765  -0.517   3.348  0.0221 -0.2649  0.5708
   36PEO   C26625184   3.644  -0.436   3.284  0.1351  0.1274  0.3560
   36PEO   H26725185   3.680  -0.382   3.195 -2.6471  3.6094  1.1449
   36PEO   H26825186   3.555  -0.498   3.264  0.8010 -0.2814 -1.5891
   36PEO   O26925187   3.588  -0.349   3.388  0.4341  0.3639 -0.2152
   36PEO   H26A25188   3.390  -0.327   3.324 -0.9700  0.6476  1.8026
   36PEO   H26B25189   3.517  -0.232   3.240 -2.5384  1.4208 -0.4503
   36PEO   C26C25190   3.481  -0.267   3.338 -0.2900  0.1125 -0.0142
   36PEO   C26D25191   3.463  -0.143   3.429  0.1300  0.7365  0.3723
   36PEO   H26E25192   3.559  -0.090   3.433  0.0933  1.0306 -1.6845
   36PEO   H26F25193   3.394  -0.069   3.386 -1.1831 -0.1765  0.8458
   36PEO   O27025194   3.424  -0.178   3.562 -0.4371 -0.1726 -0.1331
   36PEO   H27125195   3.272  -0.232   3.704  2.4753 -2.0891  1.7371
   36PEO   H27225196   3.306  -0.354   3.579 -1.7998  0.0113 -0.8715
   36PEO   C27325197   3.299  -0.246   3.599  0.3443 -0.1018  0.8397
   36PEO   C27425198   3.178  -0.185   3.518 -0.3672  0.0416 -0.8581
   36PEO   H27525199   3.076  -0.196   3.559  0.0120 -1.1343 -0.2080
   36PEO   H27625200   3.189  -0.075   3.519  0.5487 -0.0118  1.7277
   36PEO   O27725201   3.178  -0.243   3.386 -0.0844 -0.2366 -0.3374
   36PEO   H27825202   3.152  -0.082   3.253  0.1747 -0.4174 -2.3805
   36PEO   H27925203   3.001  -0.164   3.306  0.0395 -0.0100  1.8867
   36PEO   C27A25204   3.107  -0.178   3.281 -0.4135  0.3467 -0.5219
   36PEO   C27B25205   3.121  -0.261   3.158 -0.5023 -0.2304 -0.5827
   36PEO   H27C25206   3.091  -0.366   3.171  1.7736 -1.0838 -1.7437
   36PEO   H27D25207   3.058  -0.220   3.078 -0.0922 -2.1630 -1.9580
   36PEO   O27E25208   3.261  -0.256   3.117 -0.1888  0.4833 -0.0439
   36PEO   H27F25209   3.288  -0.463   3.098 -1.8116  0.4934  0.9781
   36PEO   H28025210   3.427  -0.381   3.073 -1.3419 -3.2846  0.2716
   36PEO   C28125211   3.320  -0.369   3.050 -1.0759 -0.1668  0.1326
   36PEO   C28225212   3.282  -0.357   2.902 -0.8779 -0.3413  0.0489
   36PEO   H28325213   3.300  -0.455   2.854  0.4213 -1.5028  2.7415
   36PEO   H28425214   3.176  -0.335   2.882 -0.7486  0.8902  0.6074
   36PEO   O28525215   3.357  -0.264   2.815  0.4046  0.6736  0.1679
   36PEO   H28625216   3.370  -0.119   2.962 -1.7575  0.1665  0.5343
   36PEO   H28725217   3.257  -0.067   2.821 -0.7384  1.0308  1.8425
   36PEO   C28825218   3.344  -0.125   2.855 -0.8513 -0.1104  0.3198
   36PEO   C28925219   3.468  -0.055   2.780 -0.8044  0.4636 -0.5070
   36PEO   H28A25220   3.456  -0.070   2.672 -1.2164  0.6485 -0.4871
   36PEO   H28B25221   3.483   0.050   2.809 -1.8065  1.1161 -2.2440
   36PEO   O28C25222   3.588  -0.123   2.823 -0.5047 -0.0341 -0.0559
   36PEO   H28D25223   3.707  -0.063   2.663  0.0548 -0.3850  0.0217
   36PEO   H28E25224   3.787  -0.161   2.798 -2.6163 -2.6110  1.9842
   36PEO   C28F25225   3.718  -0.080   2.771  0.7564 -0.0904  0.0037
   36PEO   C29025226   3.751   0.050   2.848 -0.3761 -0.5626  0.2927
   36PEO   H29125227   3.832   0.100   2.793  2.4311 -2.8270  2.0461
   36PEO   H29225228   3.663   0.114   2.863  0.1173  0.2679 -0.2962
   36PEO   O29325229   3.803   0.032   2.981  0.1451  0.5521 -0.5372
   36PEO   H29425230   3.764  -0.166   3.058  3.3346  0.3612 -0.5860
   36PEO   H29525231   3.630  -0.048   3.075  0.9334  1.0229 -1.0131
   36PEO   C29625232   3.739  -0.060   3.074  0.8248 -0.2163 -0.2469
   36PEO   C29725233   3.799  -0.017   3.215 -1.5267  0.1099  0.2307
   36PEO   H29825234   3.801  -0.093   3.294  3.2798 -0.8084 -0.4754
   36PEO   H29925235   3.908  -0.001   3.207 -1.6664  0.8169 -0.3156
   36PEO   O29A25236   3.738   0.101   3.273  0.0094 -0.0329  0.6063
   36PEO   H29B25237   3.898   0.135   3.391 -0.2770 -0.9554 -1.5585
   36PEO   H29C25238   3.758   0.059   3.477  1.5283 -0.5543  1.0202
   36PEO   C29D25239   3.789   0.134   3.402 -0.1264 -0.4042  0.4368
   36PEO   C29E25240   3.735   0.266   3.441  0.1146  0.2518 -0.5755
   36PEO   H29F25241   3.760   0.284   3.547  1.6194  3.2061 -1.3389
   36PEO   H2A025242   3.790   0.343   3.387  1.3319  0.5489  0.9982
   36PEO   O2A125243   3.591   0.262   3.414 -0.1893 -0.0811 -0.5284
   36PEO   H2A225244   3.507   0.380   3.560  1.9855 -0.1665 -1.4474
   36PEO   H2A325245   3.508   0.210   3.597  0.8687 -2.5683 -1.3962
   36PEO   C2A425246   3.488   0.281   3.516 -0.5461 -0.6741  0.4831
   36PEO   C2A525247   3.346   0.286   3.447  0.0882  0.0329 -0.4857
   36PEO   H2A625248   3.334   0.316   3.342 -4.6750  2.0241  0.3987
   36PEO   H2A725249   3.303   0.185   3.451  0.6640 -0.2629 -1.4623
   36PEO   O2A825250   3.251   0.368   3.517  0.0619  0.0964 -0.4318
   36PEO   H2A925251   3.078   0.254   3.507 -2.0952  0.5179 -0.1141
   36PEO   H2AA25252   3.112   0.359   3.364  1.6414 -1.9945 -0.0461
   36PEO   C2AB25253   3.118   0.351   3.474 -0.5812  0.0697  0.2890
   36PEO   C2AC25254   3.036   0.464   3.533  0.0302  0.0725  0.6838
   36PEO   H2AD25255   2.932   0.463   3.496 -0.8032  0.8546  2.7998
   36PEO   H2AE25256   3.024   0.447   3.641 -1.7206  0.8553  0.6542
   36PEO   O2AF25257   3.105   0.589   3.508 -0.1109  0.4789  0.4840
   36PEO   H2B025258   3.104   0.796   3.552 -1.3578  1.9802  2.0470
   36PEO   H2B125259   3.117   0.689   3.693  1.9086  0.8062 -0.4895
   36PEO   C2B225260   3.069   0.701   3.595  0.5166  0.2832  0.1113
   36PEO   C2B325261   2.915   0.714   3.625 -0.2813 -0.0772  0.3757
   36PEO   H2B425262   2.882   0.625   3.681  1.6337 -2.6088 -2.2479
   36PEO   H2B525263   2.891   0.804   3.685  1.6889 -0.1460  1.3410
   36PEO   O2B625264   2.850   0.716   3.493 -0.3322  0.4500  0.1763
   36PEO   H2B725265   2.684   0.838   3.508  0.6981  0.4338 -1.5312
   36PEO   H2B825266   2.663   0.671   3.572 -0.9787  0.4760  0.1455
   36PEO   C2B925267   2.711   0.732   3.494  0.1576 -0.0122  0.4469
   36PEO   C2BA25268   2.651   0.681   3.364 -0.8764 -0.7184  0.7463
   36PEO   H2BB25269   2.716   0.602   3.324 -0.6356  1.0450 -2.6853
   36PEO   H2BC25270   2.546   0.653   3.379 -0.7879 -1.2866  0.3101
   36PEO   O2BD25271   2.653   0.793   3.275  0.6119 -0.7462 -0.0789
   36PEO   H2BE25272   2.615   0.873   3.315 -1.3489 -0.2153 -2.7600
   37PEO   H00125273   5.906   3.491   0.294  1.9017  0.2691  1.8836
   37PEO   H00225274   6.007   3.349   0.279 -1.7842  0.1960 -0.3306
   37PEO   H00325275   6.068   3.505   0.361  2.1902 -2.8417  0.7868
   37PEO   C00425276   6.010   3.459   0.279  1.5799  0.1912 -0.6086
   37PEO   C00525277   6.063   3.516   0.154  0.4543 -0.3043 -0.0083
   37PEO   H00625278   6.021   3.458   0.071 -2.9830  1.0263  0.6425
   37PEO   H00725279   6.036   3.621   0.136  1.6035 -0.2365 -1.6024
   37PEO   O00825280   6.201   3.497   0.138  0.2097 -0.1400  0.4141
   37PEO   H00925281   6.280   3.422   0.313  2.0299  0.5260  0.3807
   37PEO   H00A25282   6.251   3.601   0.293 -2.6060 -1.3948 -1.0624
   37PEO   C00B25283   6.291   3.509   0.246  0.3597 -0.2559 -0.9905
   37PEO   C00C25284   6.434   3.525   0.196 -0.8949 -0.0149 -0.0191
   37PEO   H00D25285   6.435   3.576   0.099  2.5732  0.8755  0.3614
   37PEO   H00E25286   6.494   3.574   0.273  2.7649 -2.7680 -0.8299
   37PEO   O00F25287   6.503   3.393   0.184 -0.1645  0.1269  0.1638
   37PEO   H01025288   6.704   3.444   0.193 -1.3881  0.0201  0.5945
   37PEO   H01125289   6.624   3.447   0.025 -0.6396 -1.2856 -1.4389
   37PEO   C01225290   6.635   3.395   0.122 -0.2560  0.1901 -0.6570
   37PEO   C01325291   6.677   3.247   0.091 -0.1356  0.0875 -0.1125
   37PEO   H01425292   6.617   3.199   0.012 -1.8884 -0.1231  1.2721
   37PEO   H01525293   6.779   3.260   0.052 -0.2513 -0.9846 -0.8213
   37PEO   O01625294   6.669   3.175   0.213  0.2815 -0.0329 -0.4300
   37PEO   H01725295   6.718   3.000   0.114 -0.6943 -2.0312  0.6128
   37PEO   H01825296   6.688   2.993   0.298  0.6015 -0.5872 -0.4074
   37PEO   C01925297   6.726   3.049   0.212 -0.9192  0.3501 -0.5086
   37PEO   C01A25298   6.875   3.059   0.249 -0.3473  0.4596 -0.3115
   37PEO   H01B25299   6.900   3.158   0.290  1.2578 -0.6630  1.5579
   37PEO   H01C25300   6.902   2.979   0.319  0.0643 -1.4776 -2.5273
   37PEO   O01D25301   6.945   3.049   0.122 -0.1723  0.1743 -0.1143
   37PEO   H01E25302   7.138   2.980   0.161  3.1223  1.5268 -0.8023
   37PEO   H01F25303   7.111   3.155   0.212 -1.3668 -0.1502  0.4062
   37PEO   C02025304   7.084   3.074   0.142  0.1281  0.0134 -0.3930
   37PEO   C02125305   7.142   3.118   0.002 -0.1852 -0.1027 -0.1215
   37PEO   H02225306   7.251   3.121   0.019 -0.4775  1.2925  1.7581
   37PEO   H02325307   7.096   3.053  -0.074 -0.5882 -1.2504  1.0581
   37PEO   O02425308   7.097   3.250  -0.026 -0.5208 -0.5788  0.7229
   37PEO   H02525309   6.971   3.248  -0.185  1.4306 -4.1195 -0.4968
   37PEO   H02625310   7.130   3.211  -0.233 -1.0712  0.2460 -0.9390
   37PEO   C02725311   7.075   3.281  -0.169  0.1678 -0.2887  0.7573
   37PEO   C02825312   7.091   3.423  -0.219 -0.1838  0.1810  1.2218
   37PEO   H02925313   7.192   3.466  -0.213 -0.4101  1.0760 -0.6808
   37PEO   H02A25314   7.064   3.410  -0.324 -0.8316 -1.1003  1.5274
   37PEO   O02B25315   7.000   3.509  -0.154 -0.6826  0.3171  0.8138
   37PEO   H02C25316   7.124   3.656  -0.077  0.7958  0.2030  2.3078
   37PEO   H02D25317   7.115   3.505   0.017 -1.5767  0.9031  1.9861
   37PEO   C02E25318   7.055   3.579  -0.039 -0.5856  0.1407 -0.1642
   37PEO   C02F25319   6.932   3.631   0.043 -0.0328  0.3091  0.4597
   37PEO   H03025320   6.864   3.546   0.059  0.9763 -0.0627  3.6371
   37PEO   H03125321   6.959   3.662   0.145  1.1536 -3.7618  1.5633
   37PEO   O03225322   6.870   3.741  -0.025  0.3532  0.2157 -0.1154
   37PEO   H03325323   6.743   3.821   0.124 -2.7111 -0.6863  0.9192
   37PEO   H03425324   6.665   3.699   0.004  0.8504 -1.0255  0.7337
   37PEO   C03525325   6.738   3.780   0.023  0.0959 -0.2843  0.5583
   37PEO   C03625326   6.694   3.879  -0.081 -0.2926  0.1636 -0.2565
   37PEO   H03725327   6.695   3.826  -0.178 -0.5264 -2.6109  1.1657
   37PEO   H03825328   6.589   3.898  -0.055 -0.5863 -0.2780 -1.0662
   37PEO   O03925329   6.771   3.995  -0.066  0.1938 -0.0048  0.1554
   37PEO   H03A25330   6.654   4.137  -0.161  1.2723  3.0359  0.0718
   37PEO   H03B25331   6.780   4.067  -0.268 -0.2588 -1.4853  0.4200
   37PEO   C03C25332   6.757   4.098  -0.165  0.1454 -0.2400  0.1526
   37PEO   C03D25333   6.856   4.207  -0.125  0.1503  0.3666  0.5058
   37PEO   H03E25334   6.960   4.172  -0.126 -0.1478 -0.5306  0.3622
   37PEO   H03F25335   6.834   4.292  -0.192 -1.0819 -0.0180  0.3997
   37PEO   O04025336   6.823   4.269  -0.003  0.3177  0.2537  0.1181
   37PEO   H04125337   7.013   4.368   0.041 -1.0635 -2.4147  1.4160
   37PEO   H04225338   6.891   4.398   0.152  2.2264  2.1174  0.2961
   37PEO   C04325339   6.904   4.383   0.044 -0.8122  0.4850  0.0684
   37PEO   C04425340   6.860   4.514  -0.018 -0.2423 -0.2592 -0.4563
   37PEO   H04525341   6.934   4.594  -0.002  0.9542 -1.6148  0.9821
   37PEO   H04625342   6.860   4.502  -0.127  0.3799 -2.2752 -0.2645
   37PEO   O04725343   6.730   4.551   0.025  0.2756 -0.1605  0.3496
   37PEO   H04825344   6.571   4.677   0.018  1.3614 -2.0253  1.3882
   37PEO   H04925345   6.714   4.719  -0.092  1.0173  0.6124  0.0127
   37PEO   C04A25346   6.680   4.689   0.008  1.0563  0.2884 -0.0700
   37PEO   C04B25347   6.729   4.778   0.129  0.1335 -0.2281 -0.9798
   37PEO   H04C25348   6.659   4.863   0.128  0.7369  0.2783 -2.2173
   37PEO   H04D25349   6.718   4.721   0.222 -2.4658  0.0477 -1.0432
   37PEO   O04E25350   6.869   4.825   0.114  0.3414  0.1211 -0.9706
   37PEO   H04F25351   6.980   4.792   0.282  0.2345 -0.4947 -2.3707
   37PEO   H05025352   6.851   4.922   0.306 -2.0528 -0.3605 -0.5836
   37PEO   C05125353   6.925   4.877   0.238 -0.5115  0.5740  0.4048
   37PEO   C05225354   7.031   4.976   0.192  0.6422 -0.3519  0.1914
   37PEO   H05325355   7.104   5.010   0.267 -2.1219  1.0929  2.4063
   37PEO   H05425356   7.088   4.924   0.114  0.7749  1.1621 -0.7630
   37PEO   O05525357   6.967   5.096   0.130  0.0994  0.1638 -0.2374
   37PEO   H05625358   7.100   5.114  -0.023  1.0118  3.1148 -2.2657
   37PEO   H05725359   7.138   5.219   0.115  1.3575 -0.6613 -2.4364
   37PEO   C05825360   7.056   5.180   0.053 -0.8083 -0.5044  0.1258
   37PEO   C05925361   6.975   5.294  -0.017  0.0062 -0.0963  0.0817
   37PEO   H05A25362   7.048   5.332  -0.089 -1.7702  2.1311 -0.6937
   37PEO   H05B25363   6.886   5.256  -0.070 -1.2795  1.3434  1.1108
   37PEO   O05C25364   6.952   5.404   0.074 -0.7822 -0.1851 -0.0092
   37PEO   H05D25365   7.051   5.539  -0.041 -0.7808 -0.8743 -2.1182
   37PEO   H05E25366   6.973   5.608   0.089 -0.2478  0.7046 -0.4770
   37PEO   C05F25367   6.955   5.533   0.012  0.2145  0.1487 -0.0562
   37PEO   C06025368   6.832   5.566  -0.076 -0.4937  0.0290 -0.1973
   37PEO   H06125369   6.736   5.544  -0.027 -1.5031  0.9509 -1.6675
   37PEO   H06225370   6.830   5.675  -0.095  1.9313  0.4912  1.6495
   37PEO   O06325371   6.848   5.493  -0.189 -0.2486  0.4208 -0.3254
   37PEO   H06425372   6.730   5.605  -0.321  0.2835  0.1249 -1.4168
   37PEO   H06525373   6.657   5.458  -0.235  1.7993 -0.7940  0.1290
   37PEO   C06625374   6.743   5.501  -0.289  0.8314  0.4757 -0.4541
   37PEO   C06725375   6.783   5.399  -0.397 -0.1965 -0.2554  0.4940
   37PEO   H06825376   6.758   5.435  -0.498  0.3126  0.6534  0.6792
   37PEO   H06925377   6.893   5.395  -0.400 -0.1893 -0.1897  0.6351
   37PEO   O06A25378   6.736   5.275  -0.362  0.2131  0.2199  0.1603
   37PEO   H06B25379   6.707   5.095  -0.439 -0.2496  1.5196  1.8569
   37PEO   H06C25380   6.777   5.208  -0.559 -0.1951 -0.3221  0.0854
   37PEO   C06D25381   6.699   5.196  -0.482 -0.5293  0.7208 -0.0736
   37PEO   C06E25382   6.564   5.227  -0.535  0.1561  0.2132 -0.0849
   37PEO   H06F25383   6.567   5.211  -0.644 -0.0207 -3.9301  0.3467
   37PEO   H07025384   6.495   5.149  -0.499  0.0374 -0.6787 -2.0948
   37PEO   O07125385   6.523   5.359  -0.489 -0.7163  0.4373  0.2651
   37PEO   H07225386   6.329   5.357  -0.549  0.9194 -2.5631  0.0764
   37PEO   H07325387   6.439   5.400  -0.680 -2.1072 -2.2041 -0.1304
   37PEO   C07425388   6.422   5.411  -0.572 -0.0387 -0.8174  0.1029
   37PEO   C07525389   6.413   5.561  -0.536 -0.0422 -0.4495  0.3624
   37PEO   H07625390   6.315   5.600  -0.568  2.7529  3.9092 -4.4417
   37PEO   H07725391   6.426   5.574  -0.427  0.6388  1.8550  0.0631
   37PEO   O07825392   6.516   5.636  -0.608  1.3537  0.0108 -0.4705
   37PEO   H07925393   6.574   5.734  -0.441 -1.9755 -3.1087 -0.2070
   37PEO   H07A25394   6.490   5.842  -0.557  0.5497 -0.3563  1.0671
   37PEO   C07B25395   6.561   5.758  -0.547  0.9002 -0.1990 -0.0574
   37PEO   C07C25396   6.693   5.803  -0.614  0.0926  0.5487  0.7937
   37PEO   H07D25397   6.691   5.815  -0.724  2.8522 -5.2168 -0.2801
   37PEO   H07E25398   6.724   5.899  -0.571  1.0379  1.0110 -0.8461
   37PEO   O07F25399   6.800   5.715  -0.583  0.1352  0.0883 -0.7098
   37PEO   H08025400   6.931   5.870  -0.628 -2.0382  0.2390 -0.6172
   37PEO   H08125401   6.952   5.703  -0.718  2.8164 -0.1786  0.8954
   37PEO   C08225402   6.924   5.760  -0.628  0.3586  0.0369  0.0702
   37PEO   C08325403   7.024   5.718  -0.524 -0.7690 -0.7722 -0.2372
   37PEO   H08425404   7.026   5.608  -0.523 -1.1278 -0.8004  2.0895
   37PEO   H08525405   7.128   5.747  -0.545 -0.4112 -0.4772  1.7368
   37PEO   O08625406   6.989   5.778  -0.398 -0.5255 -0.3779  0.1704
   37PEO   H08725407   7.067   5.633  -0.284 -1.9928  0.5948 -2.2422
   37PEO   H08825408   7.024   5.776  -0.185  1.4330  0.0322  0.4214
   37PEO   C08925409   7.067   5.743  -0.281  0.6312  0.6202 -0.1534
   37PEO   C08A25410   7.211   5.804  -0.294  0.3791 -0.6435 -0.4397
   37PEO   H08B25411   7.207   5.905  -0.338  0.5419  0.6893  2.3803
   37PEO   H08C25412   7.254   5.822  -0.194  1.0799  1.2768 -1.0349
   37PEO   O08D25413   7.288   5.710  -0.370 -0.6788  0.4483 -0.3552
   37PEO   H08E25414   7.476   5.649  -0.423  0.3560 -0.4414  1.0814
   37PEO   H08F25415   7.484   5.781  -0.310  1.7997 -0.5085 -1.4752
   37PEO   C09025416   7.427   5.744  -0.397 -0.6849 -0.7010  0.1354
   37PEO   C09125417   7.432   5.833  -0.520 -1.3478 -0.6478  0.2877
   37PEO   H09225418   7.535   5.826  -0.556 -1.1829 -1.5577  0.9081
   37PEO   H09325419   7.361   5.790  -0.593 -0.5313 -1.7910  0.1381
   37PEO   O09425420   7.404   5.967  -0.490 -0.2838 -0.3578  0.0127
   37PEO   H09525421   7.385   6.161  -0.561  4.6439 -0.3905  1.3253
   37PEO   H09625422   7.298   6.041  -0.670 -0.8878 -1.2657  0.4511
   37PEO   C09725423   7.387   6.062  -0.608 -0.4555  0.1047 -0.5714
   37PEO   C09825424   7.520   6.068  -0.685  0.1450  0.0086  0.0727
   37PEO   H09925425   7.561   5.968  -0.704  0.8121 -0.1472  2.0680
   37PEO   H09A25426   7.496   6.112  -0.783 -1.9085  0.2606  0.6311
   37PEO   O09B25427   7.613   6.153  -0.614 -0.1565 -0.1540  0.4568
   37PEO   H09C25428   7.730   6.189  -0.781 -1.6689 -0.5808  0.7049
   37PEO   H09D25429   7.780   6.050  -0.691  0.6640 -0.2007  0.8054
   37PEO   C09E25430   7.742   6.152  -0.678 -0.2491 -0.5074  0.5881
   37PEO   C09F25431   7.844   6.237  -0.600 -0.2634  0.6071 -0.1811
   37PEO   H0A025432   7.943   6.214  -0.642 -0.8675 -0.5625 -1.0390
   37PEO   H0A125433   7.832   6.346  -0.609 -0.2776  0.5624 -0.7138
   37PEO   O0A225434   7.842   6.207  -0.460  0.1329 -0.6468 -0.2315
   37PEO   H0A325435   8.027   6.133  -0.436  0.1680  2.8308  3.7136
   37PEO   H0A425436   7.901   6.018  -0.496 -0.3902  2.7660 -1.9842
   37PEO   C0A525437   7.922   6.101  -0.428  0.4661  0.6318  0.5397
   37PEO   C0A625438   7.901   6.053  -0.283  0.0981 -0.4257  0.0664
   37PEO   H0A725439   7.997   6.016  -0.243  1.2352  2.5675  0.3945
   37PEO   H0A825440   7.861   6.126  -0.212 -0.3278 -2.4882  2.0478
   37PEO   O0A925441   7.810   5.937  -0.291 -0.5881  0.2458 -0.2616
   37PEO   H0AA25442   7.944   5.801  -0.200 -0.8544 -0.1515  0.6969
   37PEO   H0AB25443   7.948   5.813  -0.380 -0.3173  0.6992 -1.1365
   37PEO   C0AC25444   7.883   5.806  -0.292  0.7279  0.4469 -0.3688
   37PEO   C0AD25445   7.780   5.693  -0.310 -0.3647  0.3227 -0.3318
   37PEO   H0AE25446   7.811   5.602  -0.256 -0.5931 -0.4181 -1.4396
   37PEO   H0AF25447   7.688   5.715  -0.254  0.2383 -2.3733  1.9637
   37PEO   O0B025448   7.761   5.670  -0.449 -0.0925  0.0160  0.2037
   37PEO   H0B125449   7.914   5.521  -0.455  0.4669  0.2744  0.2435
   37PEO   H0B225450   7.956   5.677  -0.532 -1.2039  0.8320 -0.7055
   37PEO   C0B325451   7.874   5.606  -0.513 -0.3766  0.2237  0.7411
   37PEO   C0B425452   7.816   5.548  -0.651  0.3529  0.5406 -0.1951
   37PEO   H0B525453   7.720   5.599  -0.666 -0.6140 -1.0263  0.4615
   37PEO   H0B625454   7.886   5.561  -0.734  1.2820 -4.2496 -0.4693
   37PEO   O0B725455   7.814   5.403  -0.652  1.0887 -0.1294 -0.0502
   37PEO   H0B825456   8.005   5.381  -0.576 -1.4329  1.4462  1.0934
   37PEO   H0B925457   7.999   5.349  -0.748 -1.1967  3.8628  0.1097
   37PEO   C0BA25458   7.944   5.335  -0.654  0.3544 -0.2488  0.6160
   37PEO   C0BB25459   7.911   5.186  -0.620  1.1147  0.2184 -0.2903
   37PEO   H0BC25460   7.996   5.133  -0.574  0.2398  0.5388  1.8238
   37PEO   H0BD25461   7.824   5.175  -0.554  0.3414 -0.4210 -1.3811
   37PEO   O0BE25462   7.889   5.114  -0.741  0.4766 -0.3535 -0.8220
   37PEO   H0BF25463   7.733   4.971  -0.704 -0.8616 -1.1221 -1.6102
   37PEO   H0C025464   7.892   4.922  -0.660 -0.4542 -0.3711 -0.2310
   37PEO   C0C125465   7.838   4.980  -0.737 -0.4219 -0.1757 -0.1083
   37PEO   C0C225466   7.840   4.906  -0.871 -0.5540  0.8236 -0.0028
   37PEO   H0C325467   7.797   4.806  -0.858  3.4241 -0.9798  0.6603
   37PEO   H0C425468   7.774   4.963  -0.939 -1.3736  1.5911  1.3973
   37PEO   O0C525469   7.974   4.889  -0.929  0.6259 -0.4433 -0.2038
   37PEO   H0C625470   7.938   4.871  -1.136  0.9674  0.7575  0.0767
   37PEO   H0C725471   7.932   4.714  -1.055  2.1285 -1.5783  0.0761
   37PEO   C0C825472   7.982   4.812  -1.054  0.0313 -0.4594 -0.2539
   37PEO   C0C925473   8.131   4.809  -1.079 -0.8221  0.1374  0.8427
   37PEO   H0CA25474   8.152   4.793  -1.186 -0.5522 -0.9743  1.0468
   37PEO   H0CB25475   8.173   4.909  -1.058  0.3984 -0.4600  1.3787
   37PEO   O0CC25476   8.192   4.705  -0.999 -0.4848 -0.5494  0.1610
   37PEO   H0CD25477   8.387   4.774  -0.984  0.2096  0.3632 -0.6243
   37PEO   H0CE25478   8.346   4.678  -1.126  2.3943 -3.0696  0.8946
   37PEO   C0CF25479   8.325   4.691  -1.019 -0.2859  0.4098  0.1253
   37PEO   C0D025480   8.372   4.553  -0.965 -0.2544  0.0039 -0.2068
   37PEO   H0D125481   8.310   4.476  -1.015  2.3078 -1.4280 -1.3992
   37PEO   H0D225482   8.473   4.545  -1.008 -0.9335 -2.0133 -1.6103
   37PEO   O0D325483   8.360   4.537  -0.825 -0.4248 -0.2182 -0.2970
   37PEO   H0D425484   8.520   4.402  -0.802  0.8875  0.0443  1.2275
   37PEO   H0D525485   8.372   4.322  -0.846  1.1877 -0.9343  0.8421
   37PEO   C0D625486   8.412   4.403  -0.783  0.7467 -0.4502  0.5145
   37PEO   C0D725487   8.390   4.380  -0.630  0.3508 -0.1301  0.9100
   37PEO   H0D825488   8.440   4.291  -0.588 -0.9406 -0.8235  1.0305
   37PEO   H0D925489   8.433   4.464  -0.574  0.3853 -0.4185  1.3186
   37PEO   O0DA25490   8.253   4.362  -0.592 -0.7082  0.9178  0.2599
   37PEO   H0DB25491   8.239   4.450  -0.411  2.6400  1.2975 -0.4789
   37PEO   H0DC25492   8.320   4.284  -0.417  2.3575  3.1342 -0.2199
   37PEO   C0DD25493   8.239   4.348  -0.453  0.0453  0.8043  0.5017
   37PEO   C0DE25494   8.105   4.266  -0.429  0.0968 -0.6062  0.3163
   37PEO   H0DF25495   8.072   4.306  -0.332  0.3324 -3.0131  1.4726
   37PEO   H0E025496   8.035   4.297  -0.508 -0.7222  0.0293  1.2609
   37PEO   O0E125497   8.133   4.118  -0.423 -0.6122 -0.1298 -0.1217
   37PEO   H0E225498   7.937   4.031  -0.394 -0.1996 -2.3479 -0.2242
   37PEO   H0E325499   8.020   4.079  -0.245  1.1555  0.4586  0.3396
   37PEO   C0E425500   8.036   4.042  -0.347 -0.6136 -0.2479  0.2829
   37PEO   C0E525501   8.095   3.902  -0.336  0.0181  0.4568 -0.3441
   37PEO   H0E625502   8.016   3.840  -0.291  0.1766  0.8154  0.4465
   37PEO   H0E725503   8.103   3.865  -0.439 -1.0702  2.0035 -1.0211
   37PEO   O0E825504   8.225   3.898  -0.269  0.2900  0.8102 -0.1180
   37PEO   H0E925505   8.290   3.725  -0.352 -0.7685  0.1539 -0.5153
   37PEO   H0EA25506   8.215   3.702  -0.194 -1.9241  0.9448 -0.7972
   37PEO   C0EB25507   8.279   3.770  -0.252 -0.5396 -0.0005 -0.4208
   37PEO   C0EC25508   8.415   3.770  -0.182 -0.4885 -0.1918 -0.4303
   37PEO   H0ED25509   8.451   3.666  -0.175 -1.7966 -0.5780  1.4132
   37PEO   H0EE25510   8.481   3.832  -0.243 -0.9682  0.6495 -0.1217
   37PEO   O0EF25511   8.386   3.814  -0.045 -0.2671  0.0354  0.6955
   37PEO   H0F025512   8.421   3.951   0.097  1.7311  0.9110  0.5254
   37PEO   H0F125513   8.466   3.993  -0.079 -0.1414 -0.4522 -1.3752
   37PEO   C0F225514   8.462   3.917   0.001  0.1633  0.8055 -0.1318
   37PEO   C0F325515   8.600   3.863   0.038 -0.1690 -0.2587  0.6588
   37PEO   H0F425516   8.648   3.941   0.099 -0.5062  1.5093 -1.2134
   37PEO   H0F525517   8.607   3.769   0.095 -0.7764 -1.9963 -1.9383
   37PEO   O0F625518   8.672   3.846  -0.083  0.5396  0.0822  0.1501
   37PEO   H0F725519   8.778   3.693   0.007 -0.5524  1.7075  0.9797
   37PEO   H0F825520   8.867   3.826  -0.017  1.6520 -0.3378 -1.3298
   37PEO   C0F925521   8.790   3.770  -0.071 -0.2239  0.7752  0.0791
   37PEO   C0FA25522   8.851   3.721  -0.208  0.1967  0.3353 -0.0645
   37PEO   H0FB25523   8.947   3.669  -0.195 -0.3301 -1.2086 -1.9091
   37PEO   H0FC25524   8.776   3.656  -0.255 -0.8439  1.4312  0.0151
   37PEO   O0FD25525   8.859   3.841  -0.293 -0.0155  0.5468  0.1793
   37PEO   H0FE25526   8.895   3.911  -0.482  0.7641  0.2726  0.6819
   37PEO   H0FF25527   8.765   3.788  -0.480  1.3092 -0.2741 -2.1386
   37PEO   C10025528   8.862   3.816  -0.437  0.3222  0.0798 -0.0294
   37PEO   C10125529   8.959   3.701  -0.476 -0.3531 -0.1850  0.8666
   37PEO   H10225530   8.936   3.607  -0.424 -0.1717 -1.4257 -1.1996
   37PEO   H10325531   8.969   3.677  -0.583 -2.6730 -0.2707  0.6080
   37PEO   O10425532   9.097   3.747  -0.445  0.6838 -0.1332  0.1795
   37PEO   H10525533   9.308   3.714  -0.438 -0.3545  0.5997  0.7382
   37PEO   H10625534   9.213   3.620  -0.567 -2.0322 -0.9771  0.8169
   37PEO   C10725535   9.216   3.660  -0.465  0.1019 -0.0405  0.4342
   37PEO   C10825536   9.212   3.539  -0.365 -0.1743 -0.0043 -0.2895
   37PEO   H10925537   9.116   3.487  -0.367 -0.1793  0.0394 -1.5236
   37PEO   H10A25538   9.284   3.460  -0.388  0.9352  0.2395  2.0138
   37PEO   O10B25539   9.238   3.593  -0.236  0.1187 -0.3537  0.4883
   37PEO   H10C25540   9.214   3.399  -0.148 -2.0236 -0.0535 -3.4682
   37PEO   H10D25541   9.098   3.515  -0.109  0.4248  0.9840  1.9071
   37PEO   C10E25542   9.206   3.507  -0.126  0.1291 -0.4932  0.4150
   37PEO   C10F25543   9.286   3.561  -0.009 -0.0027 -0.9101  0.2930
   37PEO   H11025544   9.247   3.497   0.072  1.3402  1.1393  2.7330
   37PEO   H11125545   9.395   3.545  -0.022  0.3038  0.7448  0.6022
   37PEO   O11225546   9.251   3.700   0.013 -0.0193  0.2753 -0.0129
   37PEO   H11325547   9.080   3.627   0.093  0.7485 -0.6614 -0.9210
   37PEO   H11425548   9.067   3.787   0.021 -0.7560 -0.6739  0.9418
   37PEO   C11525549   9.134   3.722   0.081  0.7217 -0.5965 -0.5402
   37PEO   C11625550   9.158   3.796   0.217  0.3933  0.6792  0.4216
   37PEO   H11725551   9.198   3.893   0.185  1.2483  0.4321  0.6963
   37PEO   H11825552   9.063   3.813   0.270  0.2440 -1.7183  1.0239
   37PEO   O11925553   9.255   3.733   0.301 -0.4733  0.0126 -1.0843
   37PEO   H11A25554   9.392   3.794   0.161 -2.1938  1.3928  0.4526
   37PEO   H11B25555   9.441   3.638   0.244  0.5977  0.1590 -0.2987
   37PEO   C11C25556   9.394   3.736   0.255  0.0107 -0.1006 -0.4236
   37PEO   C11D25557   9.475   3.819   0.362  0.2721 -0.0883  0.8443
   37PEO   H11E25558   9.575   3.856   0.333  0.0721  1.5792  2.0972
   37PEO   H11F25559   9.421   3.915   0.370 -2.5324 -1.1374 -2.6700
   37PEO   O12025560   9.482   3.751   0.487  0.0515  0.2869  0.2939
   37PEO   H12125561   9.274   3.750   0.532  0.9846 -1.5758  0.0883
   37PEO   H12225562   9.365   3.883   0.610  1.9811  1.5125 -2.6096
   37PEO   C12325563   9.370   3.778   0.577  0.3234  0.3687  0.3655
   37PEO   C12425564   9.391   3.679   0.698  0.7209  0.0205  0.5120
   37PEO   H12525565   9.488   3.695   0.748  1.0292  1.6107 -0.4958
   37PEO   H12625566   9.313   3.689   0.774 -1.0342 -0.0071 -1.2071
   37PEO   O12725567   9.374   3.538   0.651 -0.1784 -0.3197  0.7003
   37PEO   H12825568   9.423   3.341   0.683  0.3245  1.6779 -0.9515
   37PEO   H12925569   9.333   3.417   0.826  0.3195  0.5423  1.2184
   37PEO   C12A25570   9.408   3.430   0.747 -0.4516  0.5530  0.4728
   37PEO   C12B25571   9.552   3.439   0.810 -0.3758 -0.5363 -0.0458
   37PEO   H12C25572   9.583   3.337   0.836  0.2495  0.1334  2.0890
   37PEO   H12D25573   9.619   3.484   0.735 -0.5229  1.4675  0.9480
   37PEO   O12E25574   9.541   3.531   0.921 -0.4363 -0.6581  0.5484
   37PEO   H12F25575   9.733   3.629   0.903 -1.9971  2.3725  1.0645
   37PEO   H13025576   9.708   3.461   0.994 -2.0174 -0.9878  1.2933
   37PEO   C13125577   9.675   3.563   0.969  0.1722 -0.4408  0.3372
   37PEO   C13225578   9.641   3.646   1.093 -0.1595 -0.3455  0.2731
   37PEO   H13325579   9.589   3.570   1.154 -0.2668 -2.1207 -1.9039
   37PEO   H13425580   9.732   3.676   1.147 -0.5927  0.9479  0.3154
   37PEO   O13525581   9.552   3.752   1.041  0.0329  0.2349 -0.0440
   37PEO   H13625582   9.594   3.885   1.182  0.4028  0.4577 -0.8765
   37PEO   H13725583   9.454   3.773   1.216  2.4619 -1.0322  0.2797
   37PEO   C13825584   9.502   3.838   1.142  0.2841  0.1132 -0.2149
   37PEO   C13925585   9.412   3.946   1.076  0.5554 -0.0431 -1.1079
   37PEO   H13A25586   9.330   3.905   1.015 -0.2683 -1.7054  0.9544
   37PEO   H13B25587   9.362   3.997   1.160  1.1821 -2.3321  0.7618
   37PEO   O13C25588   9.490   4.031   0.991 -0.2323 -0.3488  0.6251
   37PEO   H13D25589   9.346   4.177   0.954 -1.7781 -1.2156  0.5965
   37PEO   H13E25590   9.339   4.035   0.842 -0.0294 -2.8715  3.7759
   37PEO   C13F25591   9.405   4.102   0.899  0.0075  0.2341  0.4397
   37PEO   C14025592   9.497   4.181   0.806 -0.2665 -0.1571 -1.3129
   37PEO   H14125593   9.433   4.260   0.764  0.8495  2.9342  2.2375
   37PEO   H14225594   9.583   4.224   0.859 -0.8092  1.2048 -1.5060
   37PEO   O14325595   9.549   4.102   0.705 -0.1264  0.0063 -0.0960
   37PEO   H14425596   9.578   3.919   0.799 -2.3840  1.9157  0.4707
   37PEO   H14525597   9.709   4.026   0.828 -0.2078 -0.2555  0.2802
   37PEO   C14625598   9.637   3.997   0.750 -0.2601  0.2167  0.1513
   37PEO   C14725599   9.702   3.927   0.627 -0.5017  0.3686  0.1192
   37PEO   H14825600   9.739   3.825   0.645 -2.7886 -0.5636 -0.1085
   37PEO   H14925601   9.631   3.933   0.543  2.7985  1.0688 -2.8465
   37PEO   O14A25602   9.815   4.005   0.577 -0.4748  0.3195  0.4687
   37PEO   H14B25603   9.905   4.188   0.530  0.3430 -0.4581  0.1491
   37PEO   H14C25604   9.775   4.188   0.649 -0.7416 -2.7964  0.0775
   37PEO   C14D25605   9.807   4.143   0.554  0.1248 -0.4973 -0.7831
   37PEO   C14E25606   9.708   4.181   0.443  0.0593 -0.1534  0.2951
   37PEO   H14F25607   9.612   4.131   0.464 -0.3637  0.3690 -0.3526
   37PEO   H15025608   9.690   4.289   0.456 -0.7077 -0.0425 -1.5207
   37PEO   O15125609   9.768   4.149   0.317  0.0077 -0.5031 -0.0653
   37PEO   H15225610   9.952   4.167   0.232 -1.7631 -2.6942  0.1861
   37PEO   H15325611   9.919   4.298   0.358 -1.3942  1.0520  0.1872
   37PEO   C15425612   9.879   4.237   0.275  0.4287 -0.2809  0.2204
   37PEO   C15525613   9.827   4.342   0.177 -0.5562 -0.1864 -0.2923
   37PEO   H15625614   9.738   4.397   0.212 -1.2211  0.2183 -2.4644
   37PEO   H15725615   9.910   4.411   0.153 -0.1192 -1.1406 -1.7057
   37PEO   O15825616   9.801   4.280   0.052 -0.5101  0.0275 -0.1658
   37PEO   H15925617   9.812   4.451  -0.056 -1.2005 -0.0016 -1.7949
   37PEO   H15A25618   9.641   4.410   0.002 -1.2841  0.2999 -1.8673
   37PEO   C15B25619   9.736   4.373  -0.040 -0.8299 -0.1211 -0.5189
   37PEO   C15C25620   9.714   4.314  -0.188  0.4714 -0.2443 -0.7243
   37PEO   H15D25621   9.681   4.399  -0.250 -1.0663 -0.5739 -0.3965
   37PEO   H15E25622   9.807   4.274  -0.231 -1.6046 -4.1791 -2.1374
   37PEO   O15F25623   9.603   4.223  -0.197  0.3278 -0.0377  0.2548
   37PEO   H16025624   9.695   4.098  -0.341 -0.8753 -1.6041  0.8223
   37PEO   H16125625   9.589   4.233  -0.411  1.8424  1.1661  1.9738
   37PEO   C16225626   9.604   4.159  -0.331 -0.6293 -1.1710  0.4434
   37PEO   C16325627   9.482   4.065  -0.354 -0.1482 -1.0080  0.4188
   37PEO   H16425628   9.392   4.122  -0.380 -1.7049 -3.4676  0.0885
   37PEO   H16525629   9.492   3.991  -0.434 -0.9291 -1.8120  1.0504
   37PEO   O16625630   9.456   4.009  -0.227 -0.4135  0.2394  0.6635
   37PEO   H16725631   9.343   3.849  -0.157 -0.7785 -1.1286 -1.0467
   37PEO   H16825632   9.297   3.922  -0.308  2.2795 -0.6800  0.2886
   37PEO   C16925633   9.331   3.947  -0.206 -0.5870  0.0676  1.1563
   37PEO   C16A25634   9.243   4.033  -0.116  0.6094 -0.7448 -0.0038
   37PEO   H16B25635   9.152   3.978  -0.086  0.3275 -0.9142 -1.1253
   37PEO   H16C25636   9.305   4.063  -0.030  1.7260  1.4884 -1.4993
   37PEO   O16D25637   9.203   4.145  -0.196 -0.1757  0.7857 -0.7049
   37PEO   H16E25638   9.016   4.105  -0.241  1.0698  1.5966  1.7572
   37PEO   H16F25639   9.133   4.037  -0.359  0.6017  1.0852 -1.2151
   37PEO   C17025640   9.110   4.124  -0.296  0.3761  0.1880 -0.0090
   37PEO   C17125641   9.089   4.249  -0.386  0.4449 -0.0248  0.0065
   37PEO   H17225642   8.989   4.233  -0.430  0.2188  1.6941 -0.1649
   37PEO   H17325643   9.089   4.334  -0.316 -0.5622 -0.5856  0.7123
   37PEO   O17425644   9.188   4.254  -0.480 -0.5591  0.0931  1.0254
   37PEO   H17525645   9.206   4.460  -0.499  1.6595  1.6529  0.2104
   37PEO   H17625646   9.130   4.379  -0.644  3.2767  0.5410 -2.1260
   37PEO   C17725647   9.206   4.373  -0.565  0.7812  1.4164  0.5138
   37PEO   C17825648   9.346   4.377  -0.620 -0.0913  0.0003  1.0090
   37PEO   H17925649   9.350   4.479  -0.662 -0.8339 -0.2494  0.2969
   37PEO   H17A25650   9.413   4.372  -0.534  0.3763 -0.5122  0.6237
   37PEO   O17B25651   9.364   4.284  -0.728 -0.3353  0.1537  0.1537
   37PEO   H17C25652   9.504   4.189  -0.847  1.1691 -3.3228  2.6530
   37PEO   H17D25653   9.567   4.242  -0.686 -1.6848  1.7820  0.7380
   37PEO   C17E25654   9.501   4.268  -0.770 -0.1737  0.5107 -0.9067
   37PEO   C17F25655   9.556   4.390  -0.847  0.2891  0.3467 -0.0107
   37PEO   H18025656   9.641   4.364  -0.913  0.6611 -1.7682  1.2277
   37PEO   H18125657   9.478   4.421  -0.918 -0.3016 -1.7614 -0.3413
   37PEO   O18225658   9.583   4.501  -0.761 -0.7211 -0.4372 -0.0201
   37PEO   H18325659   9.521   4.654  -0.893 -1.0030 -2.0970  0.8443
   37PEO   H18425660   9.690   4.617  -0.897 -1.0148 -0.0250 -0.2160
   37PEO   C18525661   9.606   4.631  -0.828 -0.3493 -0.3206  0.6703
   37PEO   C18625662   9.650   4.743  -0.717  0.1226 -0.2180 -0.8836
   37PEO   H18725663   9.751   4.718  -0.681 -0.7335 -1.1054  1.0272
   37PEO   H18825664   9.649   4.847  -0.752 -1.7611  1.0838  2.5937
   37PEO   O18925665   9.554   4.745  -0.610  0.1556  0.1807 -0.2681
   37PEO   H18A25666   9.612   4.944  -0.560  0.7150 -1.0887 -0.3554
   37PEO   H18B25667   9.685   4.807  -0.473  1.2261 -1.2392 -1.8754
   37PEO   C18C25668   9.591   4.845  -0.515  0.3720 -0.6873  0.3826
   37PEO   C18D25669   9.487   4.873  -0.403 -0.1151 -0.8396  0.9726
   37PEO   H18E25670   9.515   4.968  -0.355 -0.8082  0.3853 -0.9405
   37PEO   H18F25671   9.389   4.898  -0.446  1.2524  1.5576 -1.0424
   37PEO   O19025672   9.494   4.761  -0.316 -0.3958  0.2789 -0.0849
   37PEO   H19125673   9.364   4.654  -0.454  0.7350  1.0845 -0.5994
   37PEO   H19225674   9.290   4.703  -0.293  1.0266 -0.2094  2.0795
   37PEO   C19325675   9.381   4.671  -0.346 -0.1404  0.2359 -0.3139
   37PEO   C19425676   9.428   4.529  -0.305 -0.1611 -0.2884 -1.1850
   37PEO   H19525677   9.379   4.449  -0.362  1.5143 -1.0283 -1.6678
   37PEO   H19625678   9.536   4.522  -0.327  0.0581  0.4885 -0.3828
   37PEO   O19725679   9.413   4.514  -0.162  0.2772 -0.2904 -0.6819
   37PEO   H19825680   9.307   4.348  -0.122  0.0317  0.3304 -0.2399
   37PEO   H19925681   9.213   4.496  -0.174  1.1661  1.2967 -1.0882
   37PEO   C19A25682   9.294   4.457  -0.112 -0.3174  0.2436  0.2402
   37PEO   C19B25683   9.272   4.491   0.039  0.3576  0.1565 -0.0465
   37PEO   H19C25684   9.282   4.600   0.053  1.9673  0.0656 -0.2319
   37PEO   H19D25685   9.166   4.476   0.065  0.0368 -3.2889 -2.7470
   37PEO   O19E25686   9.373   4.419   0.122  0.4473 -0.2441  0.0055
   37PEO   H19F25687   9.434   4.228   0.047 -2.0089  1.7382 -1.8932
   37PEO   H1A025688   9.268   4.241   0.086 -0.6434 -2.3991  2.8330
   37PEO   C1A125689   9.367   4.273   0.122 -0.5109  0.1386  0.5707
   37PEO   C1A225690   9.407   4.204   0.250 -0.4135 -0.4513  0.0799
   37PEO   H1A325691   9.408   4.094   0.241  3.1885 -0.3889 -3.1641
   37PEO   H1A425692   9.512   4.231   0.268 -0.5130 -0.8001  1.2202
   37PEO   O1A525693   9.314   4.258   0.346 -0.0091 -0.1740 -0.2201
   37PEO   H1A625694   9.449   4.230   0.501  0.0664  1.1924 -1.3858
   37PEO   H1A725695   9.305   4.127   0.509  0.9623  0.3032  0.9391
   37PEO   C1A825696   9.341   4.227   0.482 -0.2462  0.5950  0.3450
   37PEO   C1A925697   9.292   4.348   0.571  0.0154  0.1669  0.3026
   37PEO   H1AA25698   9.203   4.392   0.525  1.0806  0.7527 -1.3028
   37PEO   H1AB25699   9.250   4.294   0.657 -1.8697 -0.2620 -0.8333
   37PEO   O1AC25700   9.392   4.444   0.622 -0.0043 -0.1038 -0.1547
   37PEO   H1AD25701   9.348   4.591   0.482 -0.5678 -1.5098 -0.4942
   37PEO   H1AE25702   9.482   4.478   0.440 -0.6919  2.5038 -1.3132
   37PEO   C1AF25703   9.435   4.535   0.521 -0.3230 -0.1775  0.9513
   37PEO   C1B025704   9.544   4.638   0.557  0.2327  0.5757  0.0116
   37PEO   H1B125705   9.545   4.714   0.478 -1.5198 -0.8997 -1.5141
   37PEO   H1B225706   9.503   4.702   0.636 -2.0714 -1.5338  0.6477
   37PEO   O1B325707   9.675   4.586   0.600 -0.3896  0.3052  1.1964
   37PEO   H1B425708   9.811   4.474   0.705  0.0991  2.1567 -0.2396
   37PEO   H1B525709   9.653   4.394   0.662 -0.7899 -0.8048 -0.7536
   37PEO   C1B625710   9.702   4.486   0.699 -0.3176 -1.0982 -0.6524
   37PEO   C1B725711   9.650   4.546   0.837  0.6030 -0.6667  0.1658
   37PEO   H1B825712   9.561   4.611   0.836  1.7865  1.1183  2.3295
   37PEO   H1B925713   9.622   4.457   0.896  0.1144 -1.5244 -1.3214
   37PEO   O1BA25714   9.758   4.611   0.911  0.3760  0.6178  0.1588
   37PEO   H1BB25715   9.674   4.797   0.918  2.1758  1.8355 -0.4721
   37PEO   H1BC25716   9.758   4.774   0.766 -1.1780  3.3765  0.4581
   37PEO   C1BD25717   9.759   4.745   0.872  0.6542 -0.8012 -0.4944
   37PEO   C1BE25718   9.898   4.794   0.928  0.5614  0.2148 -0.3279
   37PEO   H1BF25719   9.893   4.902   0.949 -0.4689  0.1517 -0.2122
   37PEO   H1C025720   9.923   4.735   1.018 -3.0407 -0.0960  0.6224
   37PEO   O1C125721  10.007   4.769   0.829  0.8988  0.9086  0.4901
   37PEO   H1C225722   9.971   4.571   0.786 -2.7007  4.7542 -0.5282
   37PEO   H1C325723  10.107   4.595   0.891 -1.7224  0.5119  1.2072
   37PEO   C1C425724  10.060   4.634   0.800  0.4168  0.6576  0.0946
   37PEO   C1C525725  10.166   4.644   0.682 -1.1158  0.9048  0.0260
   37PEO   H1C625726  10.258   4.697   0.712  0.1753 -2.1785  2.0418
   37PEO   H1C725727  10.199   4.541   0.660  0.7181  1.4339  0.1447
   37PEO   O1C825728  10.110   4.696   0.564  0.1606  0.5062  0.1282
   37PEO   H1C925729   9.970   4.535   0.556  1.1935 -0.0037 -0.6556
   37PEO   H1CA25730  10.075   4.548   0.415 -1.1461 -0.8647  0.2354
   37PEO   C1CB25731  10.023   4.607   0.492 -0.3336  1.1625 -0.6871
   37PEO   C1CC25732   9.910   4.687   0.428 -0.2125  0.5797  0.7764
   37PEO   H1CD25733   9.840   4.613   0.385  0.7005  0.4637 -0.5824
   37PEO   H1CE25734   9.845   4.740   0.498 -0.1987 -0.2801  1.4644
   37PEO   O1CF25735   9.953   4.766   0.321  0.0046 -0.6223  0.3262
   37PEO   H1D025736   9.926   4.956   0.223  2.2944 -0.3392  1.0946
   37PEO   H1D125737   9.874   4.963   0.385  1.3213 -1.0311  0.9687
   37PEO   C1D225738   9.876   4.894   0.299 -0.6426  0.2782 -0.1992
   37PEO   C1D325739   9.733   4.862   0.254 -0.9475  0.1860 -0.7573
   37PEO   H1D425740   9.705   4.767   0.303  0.7547  1.2338  2.5488
   37PEO   H1D525741   9.654   4.933   0.285 -0.0731 -0.0972  2.4511
   37PEO   O1D625742   9.718   4.843   0.112  0.0104  0.3486 -0.5278
   37PEO   H1D725743   9.625   4.656   0.127  5.1445 -0.6199  1.3839
   37PEO   H1D825744   9.615   4.733  -0.038 -3.5016  2.1938 -0.0687
   37PEO   C1D925745   9.611   4.750   0.071  0.1676 -1.3925  0.8526
   37PEO   C1DA25746   9.475   4.821   0.118  0.0445 -0.1470 -0.0254
   37PEO   H1DB25747   9.498   4.929   0.122 -1.8901  0.2959  0.3753
   37PEO   H1DC25748   9.398   4.811   0.040  1.7476 -3.1628 -1.4936
   37PEO   O1DD25749   9.437   4.775   0.242  0.1478 -0.0755 -0.4792
   37PEO   H1DE25750   9.260   4.748   0.332 -0.2267  0.8785  0.0866
   37PEO   H1DF25751   9.242   4.842   0.188 -1.6240  2.7015  2.3060
   37PEO   C1E025752   9.308   4.829   0.275  0.9827  0.2686  0.2080
   37PEO   C1E125753   9.310   4.959   0.359 -0.0960  0.9377 -0.1437
   37PEO   H1E225754   9.372   5.031   0.304 -1.5676  0.8980 -1.9602
   37PEO   H1E325755   9.203   4.984   0.368 -0.6433 -0.8057 -1.3623
   37PEO   O1E425756   9.369   4.935   0.490  0.4679  0.3116 -0.1712
   37PEO   H1E525757   9.391   5.032   0.669 -0.6041 -1.1995 -1.2353
   37PEO   H1E625758   9.312   5.127   0.542 -0.6483 -1.3182  0.7461
   37PEO   C1E725759   9.395   5.058   0.562  1.0964  0.2002 -0.8818
   37PEO   C1E825760   9.526   5.125   0.516 -0.6381  1.0595  0.0382
   37PEO   H1E925761   9.558   5.171   0.611 -0.8113 -1.9542  1.6800
   37PEO   H1EA25762   9.601   5.048   0.492  0.7015  1.6870  1.9278
   37PEO   O1EB25763   9.496   5.211   0.407  0.4961  0.0877 -0.1719
   37PEO   H1EC25764   9.696   5.256   0.376  0.5687  0.0216 -0.9738
   37PEO   H1ED25765   9.609   5.378   0.462 -1.9809 -3.0412  2.5316
   37PEO   C1EE25766   9.600   5.309   0.377  0.0676 -0.8658  0.3986
   37PEO   C1EF25767   9.596   5.368   0.235  0.1882  0.1948  0.4445
   37PEO   H1F025768   9.499   5.416   0.216  1.8938  2.6809 -3.1250
   37PEO   H1F125769   9.680   5.439   0.228  2.5963 -2.4742  0.4797
   37PEO   O1F225770   9.612   5.255   0.151 -0.3605  0.2734 -0.3147
   37PEO   H1F325771   9.683   5.197  -0.046  1.4097  1.2872 -0.4226
   37PEO   H1F425772   9.741   5.352   0.015  1.9497 -1.9139  0.4825
   37PEO   C1F525773   9.654   5.284   0.015  0.1788  0.2417  0.5431
   37PEO   C1F625774   9.532   5.353  -0.064 -0.4746 -0.7235 -0.2417
   37PEO   H1F725775   9.473   5.427  -0.008  0.0627 -0.0225 -0.5869
   37PEO   H1F825776   9.575   5.420  -0.140 -1.4363  0.4056  0.1614
   37PEO   O1F925777   9.457   5.254  -0.127 -0.4533  0.5745  0.4522
   37PEO   H1FA25778   9.399   5.377  -0.266 -1.0040  0.0778  0.0133
   37PEO   H1FB25779   9.274   5.350  -0.139  1.0912  1.8888 -0.9158
   37PEO   C1FC25780   9.353   5.303  -0.200  0.7552 -0.6659  0.4620
   37PEO   C1FD25781   9.300   5.184  -0.283 -0.3841  0.2992 -0.1858
   37PEO   H1FE25782   9.265   5.213  -0.383  0.6497 -0.7745 -0.8904
   37PEO   H1FF25783   9.390   5.125  -0.307 -1.6380 -1.3798 -0.9403
   37PEO   O20025784   9.212   5.087  -0.220  0.2115 -0.1779 -0.3954
   37PEO   H20125785   9.330   5.029  -0.050 -0.2171  1.1576 -0.8164
   37PEO   H20225786   9.320   4.914  -0.191  0.7154  0.9674 -1.1821
   37PEO   C20325787   9.267   4.988  -0.130 -0.0812 -0.4069 -0.1652
   37PEO   C20425788   9.153   4.912  -0.075  0.1256  0.2826  0.0131
   37PEO   H20525789   9.098   4.874  -0.162 -3.0463  2.4530  0.8769
   37PEO   H20625790   9.182   4.823  -0.017 -1.0703 -0.8348 -1.0507
   37PEO   O20725791   9.074   5.006   0.005  0.6684 -0.1386  0.5561
   37PEO   H20825792   8.953   4.852   0.066 -0.5193 -1.3574 -0.7239
   37PEO   H20925793   8.884   4.940  -0.074 -0.0246  0.8864  0.2413
   37PEO   C20A25794   8.941   4.951   0.019  0.9306 -0.8532 -0.0880
   37PEO   C20B25795   8.853   5.047   0.112  0.2477  0.3816  0.1649
   37PEO   H20C25796   8.752   5.005   0.127  0.1012  0.7176  0.1167
   37PEO   H20D25797   8.901   5.068   0.208 -1.5467  0.2586  1.1338
   37PEO   O20E25798   8.827   5.169   0.037 -0.0392 -0.3707 -0.3582
   37PEO   H20F25799   8.808   5.296   0.197  1.0123 -0.7545 -1.3380
   37PEO   H21025800   8.661   5.228   0.143  1.2362 -1.1905  1.8235
   37PEO   C21125801   8.756   5.269   0.104 -0.4149  0.3441 -0.8972
   37PEO   C21225802   8.724   5.392   0.016 -0.7908 -0.5327  0.6486
   37PEO   H21325803   8.652   5.367  -0.063  0.8095 -0.2546 -0.9444
   37PEO   H21425804   8.670   5.462   0.082 -2.0164  0.3580 -1.2037
   37PEO   O21525805   8.858   5.434  -0.037  0.2128 -0.7045 -0.5192
   37PEO   H21625806   8.893   5.630  -0.039  1.1093 -1.8018  1.7222
   37PEO   H21725807   8.780   5.579  -0.164  1.0983  3.0345 -1.7153
   37PEO   C21825808   8.874   5.552  -0.114 -0.2749  0.4272 -0.4061
   37PEO   C21925809   8.997   5.531  -0.205  0.0038 -0.2283 -0.7892
   37PEO   H21A25810   9.029   5.630  -0.242 -0.3747  0.6174  1.0270
   37PEO   H21B25811   9.080   5.477  -0.157 -1.1429 -2.2857 -1.0230
   37PEO   O21C25812   8.952   5.454  -0.319 -0.2769 -0.1924 -0.7138
   37PEO   H21D25813   8.862   5.283  -0.229  0.8480 -3.1843 -0.1092
   37PEO   H21E25814   9.034   5.271  -0.274  0.1530  1.5370  3.5033
   37PEO   C21F25815   8.936   5.310  -0.305  0.1840 -0.7009  0.0464
   37PEO   C22025816   8.895   5.246  -0.439 -0.0987 -1.2067 -0.0245
   37PEO   H22125817   8.929   5.299  -0.529 -1.3194 -1.5839 -0.7319
   37PEO   H22225818   8.922   5.139  -0.445 -0.0934 -1.1510 -1.5626
   37PEO   O22325819   8.753   5.234  -0.432  0.4453 -0.1840 -0.3172
   37PEO   H22425820   8.684   5.350  -0.590  1.8941  0.5666 -0.0258
   37PEO   H22525821   8.724   5.441  -0.430  2.6148 -0.7538  0.2986
   37PEO   C22625822   8.678   5.354  -0.480  0.3432  0.5792 -0.0893
   37PEO   C22725823   8.533   5.317  -0.424 -0.2645 -0.5293  0.1901
   37PEO   H22825824   8.544   5.279  -0.322  2.9678  0.2935  0.2719
   37PEO   H22925825   8.480   5.413  -0.437  0.3143 -0.3580 -1.0737
   37PEO   O22A25826   8.470   5.221  -0.508 -0.4759 -0.1325  0.1319
   37PEO   H22B25827   8.298   5.319  -0.497 -1.6803 -1.1189 -1.3118
   37PEO   H22C25828   8.292   5.159  -0.413 -0.9075 -1.0596 -1.1878
   37PEO   C22D25829   8.332   5.215  -0.499  0.4504 -0.5008 -0.2280
   37PEO   C22E25830   8.271   5.151  -0.617 -0.3432 -0.5898  0.0037
   37PEO   H22F25831   8.174   5.193  -0.647 -1.4139 -1.6720  1.7465
   37PEO   H23025832   8.345   5.155  -0.698  0.1068 -1.7493  0.3482
   37PEO   O23125833   8.268   5.010  -0.586  0.3879 -0.2696 -0.3911
   37PEO   H23225834   8.306   4.919  -0.752 -0.6041 -1.7780 -0.7303
   37PEO   H23325835   8.138   4.984  -0.752  0.4201 -0.6580 -0.7469
   37PEO   C23425836   8.217   4.939  -0.691  0.5273  0.7601  0.2081
   37PEO   C23525837   8.158   4.799  -0.651 -1.6615  0.9075  0.0313
   37PEO   H23625838   8.114   4.767  -0.746  2.3830  2.4810 -2.6565
   37PEO   H23725839   8.237   4.734  -0.611 -2.2732  1.1806  1.7911
   37PEO   O23825840   8.057   4.823  -0.551 -0.7084 -0.2432  0.4924
   37PEO   H23925841   8.130   4.701  -0.392 -0.6678 -1.4984  0.9474
   37PEO   H23A25842   8.046   4.619  -0.520 -0.0594  0.2553 -0.8686
   37PEO   C23B25843   8.043   4.711  -0.459  0.1237 -0.3400  0.0507
   37PEO   C23C25844   7.910   4.746  -0.398 -0.0559 -0.1636 -0.5122
   37PEO   H23D25845   7.895   4.708  -0.296  0.0182  0.7126 -0.1684
   37PEO   H23E25846   7.924   4.852  -0.373  2.9199 -0.7409  0.6712
   37PEO   O23F25847   7.802   4.713  -0.485  0.2721  0.1388  0.4523
   37PEO   H24025848   7.612   4.799  -0.408 -0.5218 -1.0477  0.8698
   37PEO   H24125849   7.661   4.642  -0.336  1.5424  0.7523  0.8542
   37PEO   C24225850   7.664   4.704  -0.427 -0.1895 -0.6605 -0.2506
   37PEO   C24325851   7.583   4.656  -0.551 -0.0064 -0.2524 -0.1728
   37PEO   H24425852   7.488   4.711  -0.541  0.8546  1.4262 -0.8868
   37PEO   H24525853   7.630   4.684  -0.646  0.0848  2.6369  0.6132
   37PEO   O24625854   7.563   4.517  -0.545 -0.3374  0.8047 -0.0280
   37PEO   H24725855   7.498   4.355  -0.663 -0.3154 -0.7047 -0.7649
   37PEO   H24825856   7.516   4.505  -0.747 -1.0249  0.5836  0.6212
   37PEO   C24925857   7.485   4.463  -0.650 -0.3705 -0.8300  0.2422
   37PEO   C24A25858   7.339   4.498  -0.630  0.5257  0.1768  0.1665
   37PEO   H24B25859   7.319   4.605  -0.616  0.9775  0.4026 -0.8296
   37PEO   H24C25860   7.277   4.470  -0.717  0.1661  1.6338 -0.0831
   37PEO   O24D25861   7.295   4.435  -0.514  0.6423  0.0139  0.2049
   37PEO   H24E25862   7.109   4.349  -0.539  2.1915  0.3125 -2.3064
   37PEO   H24F25863   7.120   4.534  -0.536  0.1006  0.3482 -0.0365
   37PEO   C25025864   7.151   4.439  -0.490  0.2347  0.2370 -0.3564
   37PEO   C25125865   7.143   4.447  -0.336 -0.6108  0.2774 -0.0032
   37PEO   H25225866   7.233   4.501  -0.304  0.8323 -2.2321  0.4089
   37PEO   H25325867   7.045   4.493  -0.316 -0.5809 -0.0314  0.8994
   37PEO   O25425868   7.136   4.311  -0.274 -0.5367 -0.3603 -0.8567
   37PEO   H25525869   7.311   4.319  -0.163  0.0999  1.8373 -2.4214
   37PEO   H25625870   7.327   4.258  -0.325 -0.8177  0.4312 -0.2655
   37PEO   C25725871   7.261   4.254  -0.237 -0.8556  0.0400 -0.3076
   37PEO   C25825872   7.251   4.110  -0.174  0.8394 -0.3082 -0.2231
   37PEO   H25925873   7.353   4.074  -0.154  0.5395 -1.6410 -0.9428
   37PEO   H25A25874   7.184   4.105  -0.088  1.4490 -0.1386  0.2731
   37PEO   O25B25875   7.212   4.015  -0.277  0.3340 -0.1873 -0.6106
   37PEO   H25C25876   7.067   3.910  -0.186  0.6307 -0.8530  1.8793
   37PEO   H25D25877   7.232   3.847  -0.157 -2.0085 -0.5931  1.0735
   37PEO   C25E25878   7.165   3.892  -0.232 -0.2687 -0.3418 -0.4073
   37PEO   C25F25879   7.151   3.803  -0.354 -0.3394  0.0093  0.2205
   37PEO   H26025880   7.246   3.775  -0.403  0.0925  2.2288 -0.2908
   37PEO   H26125881   7.098   3.710  -0.326 -3.0977  0.7770 -1.9449
   37PEO   O26225882   7.070   3.869  -0.453 -0.5189  0.1469 -0.0534
   37PEO   H26325883   6.917   3.918  -0.311 -1.7961 -0.8909 -0.0104
   37PEO   H26425884   6.910   3.764  -0.402  0.7475 -0.3126  1.0800
   37PEO   C26525885   6.936   3.871  -0.408  0.0217 -0.1896 -0.0388
   37PEO   C26625886   6.846   3.944  -0.506  0.3185 -0.5270 -1.0257
   37PEO   H26725887   6.845   3.896  -0.605 -0.8475 -1.9986 -0.3379
   37PEO   H26825888   6.750   3.934  -0.452  1.7532  1.8220  2.3613
   37PEO   O26925889   6.881   4.088  -0.512 -0.3217  0.5868 -0.2270
   37PEO   H26A25890   6.711   4.191  -0.419  0.1896  2.7010 -0.7008
   37PEO   H26B25891   6.692   4.144  -0.582 -2.3025  1.8294  0.0246
   37PEO   C26C25892   6.768   4.184  -0.513 -0.4650  0.2829 -0.9898
   37PEO   C26D25893   6.803   4.334  -0.541  1.1136 -0.3449  0.1916
   37PEO   H26E25894   6.712   4.396  -0.547 -0.0063 -2.0861 -3.8442
   37PEO   H26F25895   6.866   4.383  -0.465  1.3520  1.8290 -1.3346
   37PEO   O27025896   6.849   4.347  -0.678  0.5573 -0.0381  1.2776
   37PEO   H27125897   6.750   4.195  -0.784  1.2904 -0.3293  1.6297
   37PEO   H27225898   6.817   4.322  -0.885  1.7537  1.7077  0.5239
   37PEO   C27325899   6.767   4.303  -0.789  0.5595 -0.2700 -0.4311
   37PEO   C27425900   6.628   4.381  -0.788  0.7415  0.5593  0.0741
   37PEO   H27525901   6.588   4.376  -0.891  0.2450 -0.4764  0.3034
   37PEO   H27625902   6.557   4.344  -0.713 -0.9260  3.5870  0.1275
   37PEO   O27725903   6.658   4.520  -0.776 -0.1932  0.1034  0.0317
   37PEO   H27825904   6.519   4.549  -0.647  1.8958 -2.8003 -0.2923
   37PEO   H27925905   6.475   4.584  -0.831  0.6179  4.4103 -0.0743
   37PEO   C27A25906   6.544   4.590  -0.746  0.5558  0.1844  0.4864
   37PEO   C27B25907   6.586   4.741  -0.716  0.2024  0.4424  0.4307
   37PEO   H27C25908   6.496   4.770  -0.659 -0.7574 -2.5088  0.5544
   37PEO   H27D25909   6.682   4.758  -0.666  2.8816 -2.0763 -3.3173
   37PEO   O27E25910   6.569   4.820  -0.838 -0.2908  0.1417 -0.0721
   37PEO   H27F25911   6.684   4.973  -0.890 -1.1350  1.6671 -0.5149
   37PEO   H28025912   6.635   4.982  -0.723  2.2573  0.2024 -1.0805
   37PEO   C28125913   6.597   4.961  -0.824 -0.6108 -0.0094 -0.0724
   37PEO   C28225914   6.477   5.043  -0.871 -0.1955 -0.1886 -0.5042
   37PEO   H28325915   6.480   5.149  -0.841 -1.6626  0.0713 -1.1746
   37PEO   H28425916   6.469   5.032  -0.980 -0.8992 -0.9656 -0.3807
   37PEO   O28525917   6.365   5.001  -0.795  0.2607  0.2241  0.0911
   37PEO   H28625918   6.223   5.163  -0.795  0.9458  0.5948  0.1779
   37PEO   H28725919   6.343   5.135  -0.660  0.8798 -0.7990 -0.5746
   37PEO   C28825920   6.270   5.088  -0.729 -0.2604 -0.1893  0.1786
   37PEO   C28925921   6.172   5.008  -0.640  0.0545  0.3963  0.3500
   37PEO   H28A25922   6.075   5.059  -0.640  0.3106  1.0699 -2.7429
   37PEO   H28B25923   6.157   4.913  -0.693 -3.0309 -0.1523  1.9993
   37PEO   O28C25924   6.218   4.995  -0.507  0.2776 -1.0584  0.3038
   37PEO   H28D25925   6.352   4.834  -0.530 -0.7027 -2.3776  0.0641
   37PEO   H28E25926   6.174   4.803  -0.515 -0.8732  2.4303 -0.1423
   37PEO   C28F25927   6.259   4.862  -0.478  0.1561  0.9015  0.0384
   37PEO   C29025928   6.262   4.831  -0.329 -0.0114 -0.6845 -0.9125
   37PEO   H29125929   6.163   4.857  -0.289  0.3700  0.7039 -0.8285
   37PEO   H29225930   6.269   4.721  -0.319 -1.6097 -0.8237 -1.0121
   37PEO   O29325931   6.372   4.899  -0.261  0.3216 -0.1960  0.2972
   37PEO   H29425932   6.531   4.839  -0.389  0.1875  0.5476  0.6830
   37PEO   H29525933   6.512   4.750  -0.231  2.3386 -0.9254 -0.9716
   37PEO   C29625934   6.507   4.847  -0.282 -0.1470 -0.1156  0.6655
   37PEO   C29725935   6.600   4.939  -0.222  0.4148 -0.3943  0.1145
   37PEO   H29825936   6.563   5.038  -0.253 -2.0197 -0.4715  2.4062
   37PEO   H29925937   6.591   4.945  -0.112  0.3804 -1.3307  0.1657
   37PEO   O29A25938   6.731   4.903  -0.264  0.3497 -0.4332  0.9076
   37PEO   H29B25939   6.823   5.005  -0.110 -2.0714  2.0032  0.0838
   37PEO   H29C25940   6.831   5.094  -0.251  0.9395  0.4541  1.2679
   37PEO   C29D25941   6.837   4.989  -0.218  0.2000  0.1784  0.5499
   37PEO   C29E25942   6.970   4.951  -0.281 -0.6953  0.4686  0.3690
   37PEO   H29F25943   7.047   4.998  -0.218  1.0133 -1.9484  0.1967
   37PEO   H2A025944   6.972   4.842  -0.269 -1.0412  0.5028  0.7931
   37PEO   O2A125945   6.976   4.979  -0.421 -0.6140 -0.3153  0.0106
   37PEO   H2A225946   6.813   4.879  -0.504  0.2222  0.4760 -0.0109
   37PEO   H2A325947   6.956   4.775  -0.481  0.9729  0.1555 -1.2105
   37PEO   C2A425948   6.923   4.877  -0.506  0.2125  0.1649 -0.2359
   37PEO   C2A525949   6.964   4.893  -0.651  0.5683 -0.3804  0.2112
   37PEO   H2A625950   7.074   4.897  -0.641  0.5788 -1.4371  0.5966
   37PEO   H2A725951   6.937   4.807  -0.713 -0.9188 -1.2200  1.9401
   37PEO   O2A825952   6.908   5.023  -0.685 -0.2518  0.3941  0.0522
   37PEO   H2A925953   6.896   4.969  -0.886 -1.6509  1.3167 -1.1620
   37PEO   H2AA25954   7.041   5.074  -0.828  0.4720 -2.5316  3.1748
   37PEO   C2AB25955   6.933   5.054  -0.826 -0.2320  0.0782 -0.2136
   37PEO   C2AC25956   6.863   5.186  -0.863  0.5218 -0.1626 -0.7984
   37PEO   H2AD25957   6.890   5.230  -0.961  0.7027  2.0575  0.1863
   37PEO   H2AE25958   6.754   5.172  -0.856  0.8107 -2.3729  0.0380
   37PEO   O2AF25959   6.900   5.281  -0.768  0.3903 -0.0940 -0.0663
   37PEO   H2B025960   6.945   5.444  -0.892  0.1450 -0.8209  0.8430
   37PEO   H2B125961   6.907   5.480  -0.716 -2.3437  0.1869  2.0741
   37PEO   C2B225962   6.885   5.418  -0.803 -0.4329  0.9224  1.0113
   37PEO   C2B325963   6.734   5.451  -0.831  0.2853 -0.5053  0.4315
   37PEO   H2B425964   6.676   5.386  -0.764  0.5265  0.3401  1.4756
   37PEO   H2B525965   6.711   5.557  -0.818 -0.9531 -0.4912 -1.5102
   37PEO   O2B625966   6.699   5.422  -0.972  0.1033 -0.1217  0.3055
   37PEO   H2B725967   6.540   5.529  -1.040  4.8931  0.4489 -1.7575
   37PEO   H2B825968   6.488   5.384  -0.947  0.5367 -1.2481  0.7303
   37PEO   C2B925969   6.563   5.424  -1.017 -0.3066 -0.5585  0.1920
   37PEO   C2BA25970   6.552   5.349  -1.149 -0.7705  0.3267  0.6804
   37PEO   H2BB25971   6.452   5.372  -1.190 -0.4840  0.4397  0.0288
   37PEO   H2BC25972   6.623   5.395  -1.219  0.8170  0.9349  2.5972
   37PEO   O2BD25973   6.566   5.205  -1.144  0.0739 -0.1896 -0.5164
   37PEO   H2BE25974   6.659   5.182  -1.163 -0.0211 -3.7794  2.2258
   38PEO   H00125975   3.345   1.062   3.633  0.0207  2.4672  0.6908
   38PEO   H00225976   3.201   1.167   3.604 -1.0300 -0.6285  1.5181
   38PEO   H00325977   3.227   1.017   3.508  2.8475 -1.1161 -0.5944
   38PEO   C00425978   3.276   1.102   3.557 -0.6941  0.5992  0.2873
   38PEO   C00525979   3.358   1.192   3.464  0.2755 -0.3187 -0.3644
   38PEO   H00625980   3.327   1.295   3.485  0.3869 -0.4003  0.2186
   38PEO   H00725981   3.460   1.190   3.505  0.8105 -2.0639 -1.6392
   38PEO   O00825982   3.342   1.159   3.323  0.1617 -0.0222  0.5342
   38PEO   H00925983   3.396   1.351   3.255 -0.3959  0.1880  0.5298
   38PEO   H00A25984   3.221   1.324   3.252 -1.8530 -1.3388 -2.8746
   38PEO   C00B25985   3.318   1.276   3.236 -0.4402  0.4335 -0.3153
   38PEO   C00C25986   3.333   1.232   3.090 -0.5300  0.5492 -0.8847
   38PEO   H00D25987   3.325   1.326   3.034 -1.6892  0.2735 -1.2143
   38PEO   H00E25988   3.428   1.177   3.084 -0.3771  0.5382  0.9607
   38PEO   O00F25989   3.212   1.161   3.045  0.2657 -0.5370 -0.0280
   38PEO   H01025990   3.106   1.339   2.995  0.9376  0.9584 -2.9593
   38PEO   H01125991   3.023   1.176   2.973  0.4062 -0.6008  3.0809
   38PEO   C01225992   3.117   1.233   2.966 -0.1221  0.0864 -0.4641
   38PEO   C01325993   3.181   1.231   2.823 -0.3260 -0.8640  0.3711
   38PEO   H01425994   3.147   1.317   2.763  0.0563 -0.5507  0.5956
   38PEO   H01525995   3.288   1.257   2.818 -0.6103  0.2836 -0.0736
   38PEO   O01625996   3.169   1.099   2.760  0.3662 -0.0932  0.7139
   38PEO   H01725997   2.975   1.158   2.684  1.4648  1.0174 -0.1467
   38PEO   H01825998   2.980   1.017   2.787  1.1078 -1.6166 -0.8676
   38PEO   C01925999   3.033   1.068   2.705 -0.0650 -0.1650 -0.7754
   38PEO   C01A26000   3.041   0.981   2.584 -0.3731  1.0163  0.0989
   38PEO   H01B26001   3.042   1.032   2.487  0.3445 -1.7565 -1.4483
   38PEO   H01C26002   3.137   0.930   2.600 -1.6336 -1.5655 -0.1084
   38PEO   O01D26003   2.940   0.884   2.596 -0.1383  0.2495 -0.6258
   38PEO   H01E26004   3.009   0.780   2.434  0.2877 -1.6815  1.2828
   38PEO   H01F26005   2.867   0.875   2.415  1.0891  0.9516  0.6707
   38PEO   C02026006   2.917   0.808   2.487  0.1165 -0.2554  0.2614
   38PEO   C02126007   2.840   0.678   2.514 -0.4564 -0.5749 -0.4542
   38PEO   H02226008   2.755   0.695   2.582  0.7277  1.0864  0.7061
   38PEO   H02326009   2.808   0.642   2.415 -2.2649  0.9814 -0.5075
   38PEO   O02426010   2.932   0.593   2.588  0.0080 -0.1242 -0.2774
   38PEO   H02526011   3.094   0.590   2.450 -2.8184 -1.2541 -3.2353
   38PEO   H02626012   2.987   0.449   2.453 -0.8847  1.0027 -0.7667
   38PEO   C02726013   3.036   0.524   2.516 -0.1017 -0.3802  0.3182
   38PEO   C02826014   3.134   0.460   2.611  0.1331  1.1381 -0.4531
   38PEO   H02926015   3.219   0.400   2.574  0.6611  2.2637 -1.1622
   38PEO   H02A26016   3.200   0.533   2.660  0.3743  1.5855 -1.4060
   38PEO   O02B26017   3.057   0.380   2.711 -0.2440  0.6234 -0.1618
   38PEO   H02C26018   3.157   0.206   2.645 -1.0755 -1.4035 -3.3093
   38PEO   H02D26019   2.985   0.224   2.590  0.1734  1.1005 -0.0068
   38PEO   C02E26020   3.056   0.239   2.673  0.1225 -0.3714  0.3322
   38PEO   C02F26021   3.009   0.159   2.801 -0.5125 -0.3334  0.5392
   38PEO   H03026022   2.926   0.203   2.857  0.6608  1.2733  1.0883
   38PEO   H03126023   2.979   0.072   2.740  0.9289 -0.2285 -0.3827
   38PEO   O03226024   3.133   0.131   2.881  0.0733  0.0286 -0.4457
   38PEO   H03326025   3.063   0.051   3.073  0.0825  1.1615  0.5326
   38PEO   H03426026   3.070   0.223   3.070 -1.2832 -1.0159 -0.2546
   38PEO   C03526027   3.118   0.133   3.027  0.8801  0.1418 -0.3840
   38PEO   C03626028   3.254   0.123   3.087  0.2689 -0.7668  0.0280
   38PEO   H03726029   3.250   0.123   3.197  2.4407  0.5193  0.1631
   38PEO   H03826030   3.304   0.031   3.054  0.9541 -0.2326 -0.4592
   38PEO   O03926031   3.336   0.233   3.043 -0.4484  0.2068 -0.2099
   38PEO   H03A26032   3.535   0.148   3.023  0.7928 -0.8221  2.3424
   38PEO   H03B26033   3.480   0.193   3.180  3.3303 -0.6283 -0.5207
   38PEO   C03C26034   3.478   0.226   3.076 -0.4339  0.2072 -0.3328
   38PEO   C03D26035   3.538   0.369   3.055 -0.6584 -0.1588 -0.9111
   38PEO   H03E26036   3.489   0.448   3.114 -0.0220 -1.4765  1.5357
   38PEO   H03F26037   3.633   0.360   3.110 -2.1267 -0.1401  1.8121
   38PEO   O04026038   3.555   0.403   2.916 -0.4648 -0.0917 -0.3339
   38PEO   H04126039   3.353   0.461   2.882  0.0608 -0.6493 -0.7333
   38PEO   H04226040   3.416   0.323   2.780 -0.2632 -1.2029  0.1496
   38PEO   C04326041   3.440   0.417   2.831 -0.0259 -0.7377 -0.8037
   38PEO   C04426042   3.481   0.521   2.728 -0.2288 -0.1686  0.0101
   38PEO   H04526043   3.581   0.504   2.687 -0.3093 -0.4639 -0.0618
   38PEO   H04626044   3.412   0.521   2.642 -1.8145 -0.7537  1.2225
   38PEO   O04726045   3.481   0.658   2.774 -0.3085 -0.5817  0.2061
   38PEO   H04826046   3.688   0.660   2.779 -0.8541 -2.4282  1.3594
   38PEO   H04926047   3.610   0.635   2.929  2.6999 -0.0437 -0.1033
   38PEO   C04A26048   3.603   0.697   2.838 -1.1770 -0.4275 -0.2296
   38PEO   C04B26049   3.623   0.848   2.865  0.6407  0.5661 -0.5293
   38PEO   H04C26050   3.539   0.865   2.935  1.2044  0.8204  0.0943
   38PEO   H04D26051   3.717   0.878   2.914  1.4347 -0.8420 -1.1470
   38PEO   O04E26052   3.602   0.927   2.748  0.4423 -0.1134 -0.2341
   38PEO   H04F26053   3.474   1.048   2.873 -0.8713  0.7592 -0.1768
   38PEO   H05026054   3.418   1.001   2.713  0.1743  1.4671  0.2695
   38PEO   C05126055   3.506   1.035   2.769  0.5328  0.5637  0.2671
   38PEO   C05226056   3.563   1.164   2.722 -0.4345  0.6938 -0.0407
   38PEO   H05326057   3.502   1.246   2.762 -1.1088  0.6093 -0.8804
   38PEO   H05426058   3.666   1.162   2.763 -0.5490  1.2787  0.2886
   38PEO   O05526059   3.564   1.149   2.585 -0.0643  0.3411  0.0738
   38PEO   H05626060   3.717   1.300   2.543 -0.9964  0.6464  1.5691
   38PEO   H05726061   3.554   1.359   2.544  0.8050  1.3254  0.0793
   38PEO   C05826062   3.614   1.270   2.518 -0.5367  0.4905 -0.2766
   38PEO   C05926063   3.613   1.259   2.366  0.5687  0.6102  0.5467
   38PEO   H05A26064   3.511   1.269   2.325  0.9155 -1.4114 -0.9343
   38PEO   H05B26065   3.666   1.351   2.340  2.6187 -0.8802 -0.8741
   38PEO   O05C26066   3.680   1.140   2.315 -0.1285 -1.0394 -0.6885
   38PEO   H05D26067   3.786   1.214   2.161  1.8346 -0.8382 -0.1883
   38PEO   H05E26068   3.619   1.150   2.117  0.1128  4.3095  0.7956
   38PEO   C05F26069   3.710   1.136   2.177  0.3249  0.5741 -0.1636
   38PEO   C06026070   3.781   1.007   2.154 -0.0263  0.1424  0.9526
   38PEO   H06126071   3.733   0.916   2.194  2.4307 -0.9235  1.6790
   38PEO   H06226072   3.783   0.989   2.045  1.5313  1.8608  0.6492
   38PEO   O06326073   3.913   1.018   2.211  0.1849  0.4665  0.3679
   38PEO   H06426074   4.006   0.910   2.061 -0.7208  0.2964  0.4716
   38PEO   H06526075   3.934   0.812   2.185  0.2209 -0.3702 -1.3242
   38PEO   C06626076   3.989   0.906   2.170 -0.1114  0.1830  0.5657
   38PEO   C06726077   4.121   0.909   2.253  0.3681 -0.2145  0.4151
   38PEO   H06826078   4.094   0.934   2.357 -0.8973 -3.5405  1.0169
   38PEO   H06926079   4.168   0.810   2.265 -2.0689 -1.3915  1.0262
   38PEO   O06A26080   4.216   1.008   2.203  0.2194  0.2521 -0.5447
   38PEO   H06B26081   4.385   0.926   2.291  0.3777  0.0512  2.3674
   38PEO   H06C26082   4.305   1.052   2.389 -0.0063  3.0162 -0.7187
   38PEO   C06D26083   4.336   1.025   2.287  0.5108  0.0816  0.1341
   38PEO   C06E26084   4.430   1.124   2.225  0.2106  0.7377  0.2312
   38PEO   H06F26085   4.383   1.221   2.243  1.0203  0.7151  2.7772
   38PEO   H07026086   4.524   1.130   2.282  0.9164 -2.3790 -0.4013
   38PEO   O07126087   4.467   1.086   2.092  0.0148  0.1642 -0.4587
   38PEO   H07226088   4.601   1.252   2.091  1.5754 -0.7566 -0.1474
   38PEO   H07326089   4.469   1.260   1.972  0.1314  0.8410 -0.3227
   38PEO   C07426090   4.539   1.192   2.023 -0.6132  0.6645  0.4818
   38PEO   C07526091   4.615   1.125   1.903 -0.1500  0.0760 -0.0637
   38PEO   H07626092   4.548   1.051   1.857 -0.9252  1.4101 -1.1706
   38PEO   H07726093   4.633   1.206   1.830 -1.0206 -1.0350 -1.5592
   38PEO   O07826094   4.737   1.056   1.947 -0.5776 -0.8327 -0.3344
   38PEO   H07926095   4.724   0.930   1.789  0.5282  0.2005 -0.4788
   38PEO   H07A26096   4.858   0.894   1.893 -0.5076 -0.3451  0.7536
   38PEO   C07B26097   4.804   0.978   1.847  0.2323 -0.1390  0.2252
   38PEO   C07C26098   4.892   1.072   1.764 -1.3360  0.0204 -0.0868
   38PEO   H07D26099   4.910   1.017   1.671 -1.9821 -0.7235  0.2227
   38PEO   H07E26100   4.847   1.167   1.732  3.8915  3.1788  0.6406
   38PEO   O07F26101   5.010   1.109   1.836  0.2600 -0.2448  0.7520
   38PEO   H08026102   5.075   1.283   1.749  0.6541  0.7563  2.5269
   38PEO   H08126103   5.139   1.142   1.666 -1.3164 -1.6512  0.6322
   38PEO   C08226104   5.114   1.181   1.765 -0.2094  0.0005  0.3152
   38PEO   C08326105   5.234   1.187   1.860 -0.4480  0.5656  0.0905
   38PEO   H08426106   5.305   1.267   1.835 -1.3800  2.1762  2.3095
   38PEO   H08526107   5.193   1.204   1.960  4.6424 -0.6119  2.6873
   38PEO   O08626108   5.301   1.055   1.860 -0.3086 -0.6398  0.0167
   38PEO   H08726109   5.371   1.065   2.050  0.9345 -1.3272  0.0741
   38PEO   H08826110   5.474   1.136   1.924  1.2412 -0.0308  1.0061
   38PEO   C08926111   5.409   1.050   1.947  0.3048  0.2600 -0.4198
   38PEO   C08A26112   5.483   0.920   1.945  0.0383  1.0042 -1.0314
   38PEO   H08B26113   5.571   0.929   2.010 -0.4057  1.2656 -0.4457
   38PEO   H08C26114   5.412   0.846   1.985  1.2414  0.5114  0.2710
   38PEO   O08D26115   5.532   0.883   1.815  0.1147 -0.1302  0.2276
   38PEO   H08E26116   5.644   0.753   1.689  0.3407  1.9046  0.3315
   38PEO   H08F26117   5.508   0.674   1.759  0.1897  0.0268 -0.7462
   38PEO   C09026118   5.584   0.750   1.781 -0.3156  0.3587 -0.1164
   38PEO   C09126119   5.676   0.693   1.896  0.2571  0.6491 -0.4602
   38PEO   H09226120   5.623   0.637   1.974 -0.9575  0.4362 -1.4154
   38PEO   H09326121   5.741   0.614   1.855  0.8987  0.4559  0.8891
   38PEO   O09426122   5.761   0.796   1.950 -0.2745  0.3653  0.3535
   38PEO   H09526123   5.865   0.686   2.104 -1.3541 -1.1536  0.7715
   38PEO   H09626124   5.731   0.792   2.164  1.3131 -1.1657  2.2068
   38PEO   C09726125   5.810   0.780   2.089 -0.0078 -0.3640  0.6097
   38PEO   C09826126   5.911   0.896   2.108 -0.0960 -0.9006 -0.3990
   38PEO   H09926127   5.957   0.893   2.208  2.8167  0.2783 -1.6016
   38PEO   H09A26128   5.997   0.879   2.042 -0.6722 -0.0432 -1.3986
   38PEO   O09B26129   5.845   1.025   2.105 -0.0486  0.4309 -0.2875
   38PEO   H09C26130   5.787   1.007   2.303  0.0375  0.2665  0.2150
   38PEO   H09D26131   5.652   0.997   2.194  0.7834 -2.2603  1.5073
   38PEO   C09E26132   5.748   1.047   2.208  0.2914 -0.6918 -0.3101
   38PEO   C09F26133   5.703   1.196   2.214  0.0782 -0.1647  0.6435
   38PEO   H0A026134   5.629   1.210   2.294  0.5108  1.2945  0.8178
   38PEO   H0A126135   5.781   1.273   2.225 -1.1861  1.2077  0.2810
   38PEO   O0A226136   5.632   1.210   2.087  0.0955 -0.2255 -0.3960
   38PEO   H0A326137   5.480   1.337   2.124  0.6663 -1.7910 -0.0972
   38PEO   H0A426138   5.515   1.342   1.967 -0.4067 -1.0012  0.1601
   38PEO   C0A526139   5.571   1.338   2.062  0.5013 -0.4035 -0.3325
   38PEO   C0A626140   5.661   1.466   2.086 -0.3095  0.7627  0.0173
   38PEO   H0A726141   5.763   1.445   2.049 -1.6630 -3.1497 -2.0025
   38PEO   H0A826142   5.625   1.554   2.029  0.2805  0.2808 -1.1488
   38PEO   O0A926143   5.670   1.496   2.223  0.5617 -0.5823 -0.2424
   38PEO   H0AA26144   5.470   1.472   2.261  1.2015 -0.1809 -0.4027
   38PEO   H0AB26145   5.539   1.638   2.214  0.1795 -0.4699 -1.5664
   38PEO   C0AC26146   5.548   1.548   2.277  0.3048  0.6611  0.1163
   38PEO   C0AD26147   5.563   1.579   2.430 -0.0983 -0.1956  0.0405
   38PEO   H0AE26148   5.668   1.613   2.435 -0.6517  1.7559 -0.5193
   38PEO   H0AF26149   5.500   1.666   2.455  2.1967  1.3242  0.8818
   38PEO   O0B026150   5.545   1.462   2.510 -0.1707 -0.3107  0.4068
   38PEO   H0B126151   5.735   1.452   2.598 -1.5528  0.7016 -0.3730
   38PEO   H0B226152   5.716   1.333   2.469 -1.0088 -1.9643  0.1033
   38PEO   C0B326153   5.663   1.385   2.550 -0.4649 -0.4366 -0.4792
   38PEO   C0B426154   5.622   1.278   2.661  0.6082 -0.3130 -1.0588
   38PEO   H0B526155   5.703   1.226   2.714 -0.6203 -0.5161  0.7060
   38PEO   H0B626156   5.553   1.323   2.734  0.1936 -0.3307 -1.4373
   38PEO   O0B726157   5.550   1.179   2.587 -0.0569  0.0406 -0.1413
   38PEO   H0B826158   5.381   1.157   2.720 -3.5629 -1.9031 -3.0852
   38PEO   H0B926159   5.513   1.052   2.761 -1.5959 -0.7808 -0.3557
   38PEO   C0BA26160   5.465   1.103   2.676 -0.3464  0.4353 -0.3650
   38PEO   C0BB26161   5.408   0.981   2.594  0.0485  0.6892 -0.3056
   38PEO   H0BC26162   5.358   0.918   2.670 -0.6385  0.8027 -0.6525
   38PEO   H0BD26163   5.332   1.017   2.524  0.6595  1.2955 -0.6692
   38PEO   O0BE26164   5.516   0.912   2.524 -0.5036 -0.0347 -0.3758
   38PEO   H0BF26165   5.660   0.914   2.684 -0.3308  1.2750 -0.2795
   38PEO   H0C026166   5.713   0.884   2.523  1.1021 -0.9944  0.5427
   38PEO   C0C126167   5.629   0.864   2.591  0.6082 -0.2220  0.1765
   38PEO   C0C226168   5.605   0.714   2.609 -0.6499  0.4642  1.6283
   38PEO   H0C326169   5.562   0.682   2.513  1.2443 -1.7859  1.4370
   38PEO   H0C426170   5.697   0.655   2.624  1.5718  1.6890 -4.2584
   38PEO   O0C526171   5.511   0.690   2.715  0.9210  0.0712 -0.0146
   38PEO   H0C626172   5.574   0.500   2.753 -0.9493 -2.8108  0.4776
   38PEO   H0C726173   5.429   0.495   2.654 -2.1025 -3.1081  2.1827
   38PEO   C0C826174   5.477   0.549   2.737  0.0713 -0.9501 -0.2900
   38PEO   C0C926175   5.392   0.533   2.865  0.1102 -1.2650  0.8086
   38PEO   H0CA26176   5.400   0.431   2.904  0.0300 -1.0397  1.4296
   38PEO   H0CB26177   5.429   0.590   2.952  0.2446  0.0865 -0.0908
   38PEO   O0CC26178   5.257   0.557   2.819 -0.3462 -0.5923 -0.7170
   38PEO   H0CD26179   5.204   0.557   3.012 -0.0789 -1.3036  1.2418
   38PEO   H0CE26180   5.158   0.412   2.902  0.4689 -0.3182  0.3665
   38PEO   C0CF26181   5.163   0.521   2.917 -0.2173 -0.3524  0.9336
   38PEO   C0D026182   5.031   0.599   2.874 -0.1514 -0.4829 -0.0125
   38PEO   H0D126183   5.010   0.606   2.766 -1.3015 -0.2359  0.2136
   38PEO   H0D226184   4.948   0.539   2.916 -0.8552  1.8256  2.1399
   38PEO   O0D326185   5.020   0.724   2.935  0.1115 -0.2179 -0.4518
   38PEO   H0D426186   4.993   0.663   3.140 -1.0346  0.3451  0.8368
   38PEO   H0D526187   4.840   0.708   3.050  0.0423 -0.1243 -1.6960
   38PEO   C0D626188   4.947   0.729   3.064 -0.3621  0.6799  0.7078
   38PEO   C0D726189   4.945   0.872   3.120 -0.0682 -0.0210 -0.4286
   38PEO   H0D826190   4.913   0.941   3.041  0.5440  0.3330 -0.3654
   38PEO   H0D926191   4.873   0.884   3.202  0.1625 -1.4029  0.0122
   38PEO   O0DA26192   5.075   0.880   3.168  0.6587 -0.2811 -0.3716
   38PEO   H0DB26193   5.069   1.090   3.159  0.8289  0.1383 -1.2682
   38PEO   H0DC26194   5.228   1.004   3.190 -0.0266  0.5784 -0.3799
   38PEO   C0DD26195   5.119   1.004   3.205 -0.1197 -0.2923 -1.0150
   38PEO   C0DE26196   5.103   1.014   3.365 -0.1311  0.3091  0.1640
   38PEO   H0DF26197   5.131   0.911   3.392 -2.0393  0.0670  1.3996
   38PEO   H0E026198   5.177   1.085   3.406 -0.7016  0.7191  0.5116
   38PEO   O0E126199   4.971   1.031   3.410  0.3604 -0.1542  0.1663
   38PEO   H0E226200   4.865   1.033   3.584  0.8954  2.0475 -1.4376
   38PEO   H0E326201   5.031   0.983   3.602 -2.5736  0.7306  2.7701
   38PEO   C0E426202   4.944   0.973   3.537 -0.2133 -0.2480 -0.5211
   38PEO   C0E526203   4.902   0.824   3.515 -0.1249  0.0816 -0.1273
   38PEO   H0E626204   4.982   0.767   3.464  1.2697  0.7182  1.2714
   38PEO   H0E726205   4.889   0.777   3.613 -0.4629 -0.7274 -0.5485
   38PEO   O0E826206   4.780   0.814   3.439 -0.4478  0.5919 -0.3868
   38PEO   H0E926207   4.734   0.624   3.520 -0.1805  0.2258 -0.0659
   38PEO   H0EA26208   4.800   0.619   3.354  0.0964 -1.9360  0.3865
   38PEO   C0EB26209   4.736   0.677   3.423  0.3697 -0.5583 -0.4870
   38PEO   C0EC26210   4.597   0.681   3.353 -0.2938  0.0442 -0.1113
   38PEO   H0ED26211   4.545   0.584   3.360  0.0219 -0.1210  0.0054
   38PEO   H0EE26212   4.534   0.752   3.409  2.0322  0.0492  2.7522
   38PEO   O0EF26213   4.600   0.725   3.218  0.1912  0.5307 -0.6470
   38PEO   H0F026214   4.405   0.817   3.246 -1.5840  1.0872 -1.8156
   38PEO   H0F126215   4.411   0.685   3.133  1.0609 -0.7534  0.8526
   38PEO   C0F226216   4.470   0.770   3.171  0.2038  0.1435  0.2021
   38PEO   C0F326217   4.504   0.864   3.053 -0.3219 -0.3889 -0.0374
   38PEO   H0F426218   4.597   0.845   2.997  0.2678 -0.3769  0.9112
   38PEO   H0F526219   4.425   0.849   2.978  0.3220 -4.0786 -0.1833
   38PEO   O0F626220   4.508   1.003   3.092  0.3443 -0.1477  0.0916
   38PEO   H0F726221   4.696   0.970   3.170  1.4840  0.9073  1.1811
   38PEO   H0F826222   4.575   0.987   3.288  0.7067  1.4743  1.2405
   38PEO   C0F926223   4.606   1.029   3.192  0.0962 -0.7017  0.0204
   38PEO   C0FA26224   4.645   1.173   3.199  0.7751 -0.0222 -0.4336
   38PEO   H0FB26225   4.566   1.245   3.225  1.6187  0.9279 -0.4266
   38PEO   H0FC26226   4.720   1.177   3.279 -1.0360 -2.8793  1.6104
   38PEO   O0FD26227   4.713   1.202   3.078 -0.2904  0.1910  0.7515
   38PEO   H0FE26228   4.874   1.345   3.107  0.4498  1.2785 -0.6390
   38PEO   H0FF26229   4.713   1.399   3.149  1.4750 -0.9972  2.1361
   38PEO   C10026230   4.769   1.341   3.074  0.3102  0.6333 -0.1308
   38PEO   C10126231   4.769   1.411   2.933 -1.1102  0.6467  0.1247
   38PEO   H10226232   4.678   1.383   2.878  0.4697 -1.5264 -1.5505
   38PEO   H10326233   4.755   1.519   2.951 -1.1115  0.5046  1.0253
   38PEO   O10426234   4.885   1.381   2.854  0.0882  0.3310 -0.1639
   38PEO   H10526235   4.774   1.275   2.715  0.3312 -3.3987  0.2214
   38PEO   H10626236   4.846   1.173   2.839 -0.1538 -1.5526 -0.8443
   38PEO   C10726237   4.865   1.260   2.774  0.4878 -0.3028  0.9405
   38PEO   C10826238   4.999   1.243   2.688  0.2337 -0.3627 -1.0069
   38PEO   H10926239   4.983   1.205   2.587 -2.5300 -1.4131 -0.2664
   38PEO   H10A26240   5.018   1.350   2.670 -1.8922  0.6186  1.7645
   38PEO   O10B26241   5.108   1.175   2.755  0.7418  0.1034  0.6565
   38PEO   H10C26242   4.987   1.037   2.873  0.2623  2.2122  1.3049
   38PEO   H10D26243   5.161   1.006   2.850 -0.8235 -1.0268 -0.4656
   38PEO   C10E26244   5.069   1.040   2.801 -0.6993  0.0257  0.0055
   38PEO   C10F26245   5.063   0.938   2.689  0.1242  0.1702 -0.3001
   38PEO   H11026246   5.134   0.959   2.608 -0.2219  2.1617 -0.1342
   38PEO   H11126247   5.072   0.830   2.712  0.1051  0.2138 -0.0886
   38PEO   O11226248   4.929   0.951   2.628  0.2232  0.0923 -0.0926
   38PEO   H11326249   4.826   0.937   2.801  0.1776  1.3458 -1.1725
   38PEO   H11426250   4.826   0.783   2.705  0.2128 -0.3744  1.0033
   38PEO   C11526251   4.820   0.893   2.701 -0.1713 -0.4281 -0.4006
   38PEO   C11626252   4.684   0.911   2.628 -0.4154 -0.6980 -0.6799
   38PEO   H11726253   4.707   0.883   2.524  3.2968  1.7788 -0.7174
   38PEO   H11826254   4.607   0.835   2.645 -1.6505 -0.4138 -4.1415
   38PEO   O11926255   4.635   1.046   2.646  0.5374 -0.5204 -0.1777
   38PEO   H11A26256   4.651   1.077   2.853  2.8690 -0.0176 -2.1705
   38PEO   H11B26257   4.494   0.991   2.797  0.7744 -0.3175 -0.9022
   38PEO   C11C26258   4.570   1.068   2.779  0.3291  0.4552  0.3524
   38PEO   C11D26259   4.508   1.208   2.756 -0.5017 -1.2737 -0.5407
   38PEO   H11E26260   4.494   1.243   2.859 -0.8639 -3.0390  0.0435
   38PEO   H11F26261   4.570   1.282   2.705 -0.9652 -0.3230  0.2436
   38PEO   O12026262   4.382   1.191   2.689 -0.2771 -0.1714 -0.8725
   38PEO   H12126263   4.397   1.394   2.656 -0.3523  0.1648  0.0869
   38PEO   H12226264   4.266   1.352   2.768  1.4330  2.1243  0.8193
   38PEO   C12326265   4.319   1.318   2.678 -0.6148  0.4526  0.1573
   38PEO   C12426266   4.212   1.317   2.564 -0.1161  0.6064 -0.1355
   38PEO   H12526267   4.195   1.425   2.552  1.9968  1.1700  1.3974
   38PEO   H12626268   4.255   1.264   2.478 -1.4153 -1.2900  0.3265
   38PEO   O12726269   4.103   1.243   2.611 -0.2059 -0.3217 -0.3797
   38PEO   H12826270   4.073   1.141   2.426  0.6250  1.6553  0.2058
   38PEO   H12926271   3.960   1.275   2.463  1.1084  2.4133  1.8572
   38PEO   C12A26272   4.017   1.192   2.507 -0.0350  0.7338  0.3512
   38PEO   C12B26273   3.916   1.087   2.571 -0.1781  0.1440 -0.4875
   38PEO   H12C26274   3.876   1.124   2.666 -0.4005 -0.9614 -0.1324
   38PEO   H12D26275   3.840   1.074   2.493  0.1566  0.3435 -0.8520
   38PEO   O12E26276   3.985   0.960   2.568 -0.2373 -0.0384 -0.0940
   38PEO   H12F26277   3.798   0.857   2.537 -0.8110 -2.4575  0.0991
   38PEO   H13026278   3.862   0.843   2.691 -1.3124  2.3721 -1.1842
   38PEO   C13126279   3.895   0.843   2.586  0.0465 -0.2061 -0.8131
   38PEO   C13226280   3.972   0.712   2.557  1.0314  0.0203 -0.3319
   38PEO   H13326281   3.904   0.629   2.536  1.1321  0.3580 -2.1674
   38PEO   H13426282   4.024   0.726   2.460  0.4021 -0.0021 -0.6777
   38PEO   O13526283   4.067   0.685   2.656  0.3983  0.0813 -0.1167
   38PEO   H13626284   4.183   0.849   2.603  0.6542 -0.8476 -1.7773
   38PEO   H13726285   4.244   0.691   2.559 -1.8198 -1.4208 -0.2480
   38PEO   C13826286   4.193   0.746   2.640 -0.4390 -0.3888 -0.0371
   38PEO   C13926287   4.275   0.759   2.770  1.3826 -0.0949 -0.0990
   38PEO   H13A26288   4.306   0.661   2.810  2.0848 -0.5145 -1.6094
   38PEO   H13B26289   4.369   0.810   2.746  1.4985  0.5667  1.5888
   38PEO   O13C26290   4.203   0.823   2.881 -0.0148  0.3974 -0.0276
   38PEO   H13D26291   4.131   1.001   2.797 -0.4471  0.3121  1.0397
   38PEO   H13E26292   4.298   1.006   2.836  0.0963 -2.0625 -1.1832
   38PEO   C13F26293   4.202   0.969   2.875 -0.0402 -0.1996  0.4653
   38PEO   C14026294   4.170   1.022   3.012  0.1132 -0.3991  0.9313
   38PEO   H14126295   4.222   0.962   3.088  2.9387  1.1341  0.3415
   38PEO   H14226296   4.191   1.130   3.018  0.1177 -0.3420 -0.0135
   38PEO   O14326297   4.026   1.006   3.038  0.2332  0.3991  0.2109
   38PEO   H14426298   3.824   1.023   2.997 -0.4870  0.2119 -1.3914
   38PEO   H14526299   3.923   1.003   2.852 -0.4827  1.0103 -0.8110
   38PEO   C14626300   3.919   1.054   2.950  0.2646 -0.1217 -0.1672
   38PEO   C14726301   3.922   1.203   2.918  0.1749  0.4675  0.1386
   38PEO   H14826302   4.020   1.221   2.870  0.5869 -0.3551  0.6509
   38PEO   H14926303   3.838   1.230   2.853 -1.2070 -2.3612  0.5624
   38PEO   O14A26304   3.915   1.292   3.033  1.0663 -0.0858 -0.3190
   38PEO   H14B26305   3.809   1.469   2.962 -0.4165  3.0914  1.9219
   38PEO   H14C26306   3.987   1.456   2.929  0.4680  0.0752  0.8124
   38PEO   C14D26307   3.906   1.435   3.001 -0.4938 -0.0718 -0.2933
   38PEO   C14E26308   3.940   1.516   3.127 -0.6899  0.6784  0.2205
   38PEO   H14F26309   4.023   1.469   3.181  0.0949  2.3940  0.5880
   38PEO   H15026310   3.982   1.615   3.105 -0.2259  0.5990  0.7372
   38PEO   O15126311   3.821   1.519   3.220  0.2059  0.0173  0.6027
   38PEO   H15226312   3.836   1.319   3.264  0.5505  0.5289  1.5797
   38PEO   H15326313   3.672   1.378   3.213  1.8599 -0.5114 -1.5198
   38PEO   C15426314   3.763   1.402   3.269  0.3540  0.4260  0.6812
   38PEO   C15526315   3.725   1.421   3.409 -0.4195  0.6747 -0.6266
   38PEO   H15626316   3.692   1.326   3.453  3.1187 -0.6253 -0.5163
   38PEO   H15726317   3.816   1.459   3.457  0.3683  0.1688 -1.6726
   38PEO   O15826318   3.629   1.526   3.420 -0.1482 -0.5655  0.3122
   38PEO   H15926319   3.598   1.523   3.628 -0.4519  3.6088 -0.2621
   38PEO   H15A26320   3.498   1.411   3.530  1.0810 -0.9005 -3.3842
   38PEO   C15B26321   3.540   1.512   3.535 -0.5440 -0.2690  0.0754
   38PEO   C15C26322   3.431   1.623   3.535 -0.2244 -0.0855  0.3395
   38PEO   H15D26323   3.386   1.621   3.635  0.4724  0.8435  0.6882
   38PEO   H15E26324   3.456   1.729   3.519 -1.9164  0.0812 -1.5570
   38PEO   O15F26325   3.338   1.589   3.433  0.5253 -0.1281 -0.5535
   38PEO   H16026326   3.180   1.733   3.461 -1.0765  0.1084 -0.0190
   38PEO   H16126327   3.174   1.589   3.563  2.5226  0.7668  0.4092
   38PEO   C16226328   3.201   1.624   3.462 -0.7199  0.1650 -0.7820
   38PEO   C16326329   3.106   1.554   3.371  1.1464 -0.1680 -0.3011
   38PEO   H16426330   3.012   1.610   3.362 -0.1504 -2.2331 -0.2004
   38PEO   H16526331   3.138   1.542   3.266 -1.0090  1.0667 -1.1495
   38PEO   O16626332   3.076   1.428   3.426  0.5370 -0.4664  0.3570
   38PEO   H16726333   3.022   1.340   3.241  1.4191  2.5025 -0.1298
   38PEO   H16826334   2.880   1.386   3.339 -0.4850 -0.6087 -1.7914
   38PEO   C16926335   2.984   1.348   3.344 -0.3843 -0.2192 -0.5113
   38PEO   C16A26336   2.976   1.203   3.394  0.1892  0.4270 -0.2645
   38PEO   H16B26337   2.904   1.140   3.340 -1.7308 -0.2183  2.8130
   38PEO   H16C26338   3.063   1.141   3.367  0.9726  2.4621 -2.8571
   38PEO   O16D26339   2.947   1.196   3.538 -0.6217  0.6036  0.0825
   38PEO   H16E26340   2.954   0.989   3.574 -2.2090 -1.6222  0.0890
   38PEO   H16F26341   2.802   1.057   3.512  1.3564 -2.3964 -0.9680
   38PEO   C17026342   2.887   1.076   3.580 -0.1312  0.0401  0.3382
   38PEO   C17126343   2.839   1.085   3.722 -0.3343 -0.3040  0.4693
   38PEO   H17226344   2.761   1.160   3.740 -2.3659 -2.1420 -0.1945
   38PEO   H17326345   2.804   0.989   3.762 -0.1162  0.4095  2.4763
   38PEO   O17426346   2.955   1.119   3.813 -0.3937  0.1146 -0.2537
   38PEO   H17526347   3.026   1.118   4.020  0.5848  0.5203 -1.6146
   38PEO   H17626348   2.871   1.039   3.992  0.3240 -0.7838 -1.5673
   38PEO   C17726349   2.933   1.125   3.962 -0.4568  0.3853 -0.0236
   38PEO   C17826350   2.857   1.248   4.010 -0.2099 -0.1100  0.2119
   38PEO   H17926351   2.900   1.297   4.099 -0.8415  0.3010  0.2964
   38PEO   H17A26352   2.857   1.322   3.929 -0.4570 -0.2656  0.0691
   38PEO   O17B26353   2.721   1.209   4.029 -0.1629  0.4927  0.0409
   38PEO   H17C26354   2.530   1.284   3.996 -1.2620  2.7699  0.1843
   38PEO   H17D26355   2.661   1.406   3.977 -1.2539 -0.8406 -1.1014
   38PEO   C17E26356   2.630   1.314   4.030  0.0274 -0.7447 -0.1343
   38PEO   C17F26357   2.617   1.353   4.179 -0.2986 -0.0706  0.0951
   38PEO   H18026358   2.527   1.416   4.190 -0.4064 -0.4779  1.8483
   38PEO   H18126359   2.602   1.263   4.240 -0.9813 -0.0186  0.0114
   38PEO   O18226360   2.724   1.453   4.217 -0.5420 -0.1372  0.2380
   38PEO   H18326361   2.794   1.324   4.362  1.1134 -0.2084  0.6975
   38PEO   H18426362   2.688   1.454   4.420  1.9862 -1.5600  1.9399
   38PEO   C18526363   2.774   1.432   4.355  0.9623 -0.2715  0.0484
   38PEO   C18626364   2.886   1.535   4.386  0.1804  0.2138  0.0035
   38PEO   H18726365   2.852   1.633   4.350  1.8608 -0.4662 -3.9336
   38PEO   H18826366   2.930   1.531   4.487 -0.8293 -2.1649  0.4119
   38PEO   O18926367   2.989   1.494   4.286  0.6916 -0.2316  0.4443
   38PEO   H18A26368   3.148   1.604   4.362 -0.8866 -2.1753  1.4842
   38PEO   H18B26369   3.049   1.686   4.236 -0.1374  0.1830  2.4285
   38PEO   C18C26370   3.092   1.590   4.269 -0.0896 -0.4144  0.6995
   38PEO   C18D26371   3.188   1.530   4.165 -0.0168 -0.5980  0.1482
   38PEO   H18E26372   3.282   1.584   4.151 -0.9062  1.5549  1.9242
   38PEO   H18F26373   3.227   1.432   4.196  0.4824  0.8089  4.6337
   38PEO   O19026374   3.109   1.539   4.041 -0.4434 -0.1907  0.0253
   38PEO   H19126375   3.035   1.435   3.884  0.1107  0.4701  0.6133
   38PEO   H19226376   3.092   1.334   4.006 -0.1113  0.0300 -0.2320
   38PEO   C19326377   3.122   1.425   3.952  0.2982  0.2410  0.3422
   38PEO   C19426378   3.258   1.411   3.885  0.2233 -0.1735 -0.7476
   38PEO   H19526379   3.250   1.350   3.794  0.1860  1.0721 -1.6077
   38PEO   H19626380   3.270   1.511   3.842  1.7321  0.3510  0.7599
   38PEO   O19726381   3.365   1.381   3.986  0.2048 -0.2653  0.2478
   38PEO   H19826382   3.497   1.366   3.821 -0.9055 -4.0698  0.6925
   38PEO   H19926383   3.546   1.296   3.979 -0.8491 -1.4074 -0.8643
   38PEO   C19A26384   3.497   1.382   3.929 -0.0411 -0.2473  0.2734
   38PEO   C19B26385   3.572   1.512   3.966 -0.1594 -0.1057  0.6466
   38PEO   H19C26386   3.563   1.530   4.074  1.6510  1.4027  0.5861
   38PEO   H19D26387   3.676   1.481   3.950 -0.3759  0.1384 -1.6064
   38PEO   O19E26388   3.555   1.617   3.874 -0.1569 -0.2020  0.6556
   38PEO   H19F26389   3.594   1.827   3.856  0.7768 -0.9449 -0.7769
   38PEO   H1A026390   3.675   1.739   3.993  2.7150 -2.4558 -4.4288
   38PEO   C1A126391   3.584   1.747   3.931 -0.5437  0.0076  0.1075
   38PEO   C1A226392   3.460   1.796   4.009  0.1390  0.4141 -0.0791
   38PEO   H1A326393   3.445   1.738   4.101  1.6530  0.2053  0.0636
   38PEO   H1A426394   3.473   1.900   4.040  2.2494  0.3194 -0.4991
   38PEO   O1A526395   3.339   1.798   3.915 -0.1554 -0.3489 -0.5714
   38PEO   H1A626396   3.254   1.990   3.973 -0.5729  0.5613  2.6637
   38PEO   H1A726397   3.202   1.859   4.069  2.6440 -1.4545 -0.4180
   38PEO   C1A826398   3.231   1.883   3.965  0.2208  0.5167 -0.7333
   38PEO   C1A926399   3.103   1.866   3.871  0.1573 -0.4725  0.1401
   38PEO   H1AA26400   3.103   1.766   3.826  1.3415  0.1552 -1.3295
   38PEO   H1AB26401   3.010   1.885   3.927 -0.3002 -0.6036 -0.5599
   38PEO   O1AC26402   3.115   1.969   3.766 -0.0540  0.0001 -0.7103
   38PEO   H1AD26403   3.192   1.872   3.609  3.9853 -1.1696  0.9074
   38PEO   H1AE26404   3.311   1.965   3.717 -1.5020 -0.0729  1.5783
   38PEO   C1AF26405   3.212   1.962   3.669 -0.6665  0.9975 -0.3123
   38PEO   C1B026406   3.187   2.082   3.579  0.5428 -0.3217  0.4300
   38PEO   H1B126407   3.227   2.080   3.476 -2.9105 -0.7627 -1.0671
   38PEO   H1B226408   3.077   2.086   3.587  0.5524  1.4830  0.0611
   38PEO   O1B326409   3.244   2.200   3.639  0.2274  0.5115 -0.5121
   38PEO   H1B426410   3.219   2.409   3.671 -1.2557 -0.5589  2.7697
   38PEO   H1B526411   3.083   2.314   3.595  0.2200 -0.0832  2.3403
   38PEO   C1B626412   3.192   2.330   3.599  0.2009  0.7150  0.7042
   38PEO   C1B726413   3.252   2.353   3.457 -0.0083  0.1573 -0.0615
   38PEO   H1B826414   3.264   2.462   3.452  2.0427  0.2310  3.3937
   38PEO   H1B926415   3.350   2.304   3.446 -0.6348 -1.8798  2.4046
   38PEO   O1BA26416   3.160   2.297   3.361 -0.3421 -0.3118  0.3651
   38PEO   H1BB26417   3.282   2.344   3.201  0.6266  4.6580  0.5487
   38PEO   H1BC26418   3.168   2.459   3.227 -0.3347 -0.3233  2.2846
   38PEO   C1BD26419   3.176   2.349   3.230 -0.0147 -0.4108  0.0076
   38PEO   C1BE26420   3.078   2.282   3.133 -0.1468  0.4675  0.3039
   38PEO   H1BF26421   3.091   2.317   3.030 -2.2600 -0.0467 -0.1903
   38PEO   H1C026422   3.111   2.177   3.138 -2.7060 -0.3603  1.7083
   38PEO   O1C126423   2.936   2.297   3.168  0.1882  0.2358 -0.2845
   38PEO   H1C226424   2.873   2.108   3.118 -3.3969  0.0128  2.0922
   38PEO   H1C326425   2.851   2.233   2.989  1.4430  2.0846 -0.2040
   38PEO   C1C426426   2.843   2.212   3.096 -0.5159  0.4280 -0.6014
   38PEO   C1C526427   2.699   2.231   3.144 -0.2768 -0.1597  0.1748
   38PEO   H1C626428   2.679   2.335   3.114  1.1153  0.2188  0.4729
   38PEO   H1C726429   2.633   2.178   3.075  0.9282  1.3213 -2.2347
   38PEO   O1C826430   2.676   2.188   3.280  0.1422  0.2508 -0.9612
   38PEO   H1C926431   2.705   2.390   3.307  0.2365 -1.2728 -2.8859
   38PEO   H1CA26432   2.818   2.276   3.400 -1.1938 -1.0000  0.5599
   38PEO   C1CB26433   2.715   2.299   3.368 -0.6227  0.0968 -0.5567
   38PEO   C1CC26434   2.622   2.306   3.485  0.3310 -0.2340 -0.2592
   38PEO   H1CD26435   2.655   2.395   3.540 -1.9771  0.4789  0.0853
   38PEO   H1CE26436   2.517   2.324   3.459  0.3154  1.2541  0.7383
   38PEO   O1CF26437   2.644   2.193   3.574 -0.3910 -0.0856  0.4668
   38PEO   H1D026438   2.464   2.189   3.692 -0.1424 -1.7495  0.1608
   38PEO   H1D126439   2.595   2.294   3.743 -0.4752  1.4538  0.0122
   38PEO   C1D226440   2.574   2.196   3.697 -0.2258  1.6010 -0.4274
   38PEO   C1D326441   2.636   2.087   3.783  0.2008  0.4745  1.0553
   38PEO   H1D426442   2.551   2.050   3.843  0.2904 -2.5896 -0.5277
   38PEO   H1D526443   2.688   2.006   3.729  0.5720  0.6596  1.1315
   38PEO   O1D626444   2.735   2.139   3.871 -0.0731  0.1792  0.0516
   38PEO   H1D726445   2.846   2.255   3.717 -0.0748 -0.3817  0.5660
   38PEO   H1D826446   2.902   2.100   3.761  1.4017  0.4684  1.1077
   38PEO   C1D926447   2.855   2.189   3.805  0.8863  0.2687  0.9734
   38PEO   C1DA26448   2.964   2.233   3.899 -0.2180 -0.3172 -0.3429
   38PEO   H1DB26449   2.988   2.142   3.956  1.1018  0.6575  0.7324
   38PEO   H1DC26450   3.056   2.255   3.844 -0.0542  1.9010  0.7178
   38PEO   O1DD26451   2.940   2.344   3.993 -0.3277 -0.0551 -0.1149
   38PEO   H1DE26452   2.867   2.214   4.145 -0.6584  0.6092  0.6876
   38PEO   H1DF26453   2.741   2.303   4.053 -0.8295 -0.7908  0.9182
   38PEO   C1E026454   2.841   2.310   4.099 -0.4884  0.3528  0.0484
   38PEO   C1E126455   2.859   2.417   4.205 -0.4416 -0.7575 -0.6442
   38PEO   H1E226456   2.837   2.510   4.152  0.5785 -0.1203 -0.0027
   38PEO   H1E326457   2.788   2.400   4.287  0.4853 -3.6742 -0.3315
   38PEO   O1E426458   3.004   2.422   4.250  0.5043  0.1310  0.0126
   38PEO   H1E526459   3.107   2.507   4.411 -0.6343  2.4209  2.0087
   38PEO   H1E626460   2.950   2.580   4.390  1.5899 -0.7913  3.8879
   38PEO   C1E726461   3.035   2.538   4.334 -0.3794 -0.5526  0.4126
   38PEO   C1E826462   3.107   2.640   4.249  0.7067  0.7048 -0.2576
   38PEO   H1E926463   3.134   2.717   4.322  1.4571 -0.6417  0.9397
   38PEO   H1EA26464   3.198   2.610   4.195 -0.4225  0.1173 -1.9397
   38PEO   O1EB26465   3.011   2.697   4.155  0.0264 -0.3624  0.5876
   38PEO   H1EC26466   3.154   2.762   4.031 -0.5765 -1.0483 -1.0022
   38PEO   H1ED26467   3.090   2.890   4.139 -3.4857  3.0431 -1.6004
   38PEO   C1EE26468   3.063   2.804   4.076  0.5307  0.0326  0.3463
   38PEO   C1EF26469   2.951   2.849   3.983  1.1057  0.1302 -0.2121
   38PEO   H1F026470   2.849   2.833   4.019  0.8206 -1.5750 -1.6052
   38PEO   H1F126471   2.965   2.956   3.965 -0.2316  0.5441  1.0627
   38PEO   O1F226472   2.962   2.780   3.860  0.0278  0.2957  0.0338
   38PEO   H1F326473   2.817   2.626   3.884 -1.0623  0.2388 -1.0475
   38PEO   H1F426474   2.980   2.592   3.942 -1.8760 -2.1938 -0.1199
   38PEO   C1F526475   2.924   2.643   3.862 -0.7018 -0.3995  0.1488
   38PEO   C1F626476   2.965   2.581   3.727  0.4748 -0.2437  1.1915
   38PEO   H1F726477   3.072   2.598   3.707 -0.0255  0.5518 -1.1793
   38PEO   H1F826478   2.934   2.476   3.720 -0.3107  0.0861 -1.3271
   38PEO   O1F926479   2.890   2.651   3.621 -0.5265  0.2913 -0.6143
   38PEO   H1FA26480   2.923   2.508   3.474 -1.2236 -0.3027  1.1293
   38PEO   H1FB26481   3.033   2.655   3.467 -0.8324  0.8209 -0.5639
   38PEO   C1FC26482   2.933   2.616   3.491 -0.2191 -0.2573  0.3354
   38PEO   C1FD26483   2.850   2.696   3.376  0.9972  0.1169  0.2770
   38PEO   H1FE26484   2.870   2.803   3.387  0.3329  0.5240 -2.0282
   38PEO   H1FF26485   2.894   2.674   3.278 -1.6327  0.0932 -0.9667
   38PEO   O20026486   2.704   2.655   3.391 -0.3012 -0.3057  0.0242
   38PEO   H20126487   2.643   2.558   3.219  1.7809 -0.3435 -0.6175
   38PEO   H20226488   2.650   2.738   3.208  1.9770 -2.2283 -2.3230
   38PEO   C20326489   2.625   2.652   3.272  0.2109 -0.5950 -0.6624
   38PEO   C20426490   2.479   2.683   3.302  0.9743 -0.2314  0.3448
   38PEO   H20526491   2.479   2.783   3.349 -1.7586  0.2542 -0.4864
   38PEO   H20626492   2.417   2.679   3.211 -1.2530 -0.7257  1.8068
   38PEO   O20726493   2.444   2.579   3.390 -0.3363 -0.6544  0.2838
   38PEO   H20826494   2.228   2.612   3.388 -0.0900 -0.0678  0.5132
   38PEO   H20926495   2.309   2.703   3.505 -2.6306  0.4265  0.3581
   38PEO   C20A26496   2.313   2.604   3.458 -0.6431  0.0567  1.2090
   38PEO   C20B26497   2.294   2.492   3.567  0.1969  0.1509  0.9438
   38PEO   H20C26498   2.396   2.476   3.604  0.2504  0.6185  1.0060
   38PEO   H20D26499   2.223   2.518   3.647 -1.3364 -2.9070  0.7153
   38PEO   O20E26500   2.245   2.379   3.491  0.4572 -0.2724 -0.1324
   38PEO   H20F26501   2.140   2.324   3.655 -1.4210 -0.7739 -0.8481
   38PEO   H21026502   2.265   2.212   3.619 -0.2888  0.5356  0.8762
   38PEO   C21126503   2.189   2.275   3.570  0.4680  0.4115 -0.4995
   38PEO   C21226504   2.096   2.191   3.489  0.4680  0.7443  0.3275
   38PEO   H21326505   2.033   2.131   3.556  0.2110  1.7912  1.0672
   38PEO   H21426506   2.019   2.242   3.429  0.1108 -0.1309  0.0341
   38PEO   O21526507   2.172   2.097   3.411 -0.6446  0.7654  0.7924
   38PEO   H21626508   2.365   2.170   3.354 -0.0969  0.5984 -0.5492
   38PEO   H21726509   2.223   2.232   3.259  1.4264  1.2223  0.3699
   38PEO   C21826510   2.266   2.147   3.312 -0.0200 -0.0310 -0.3836
   38PEO   C21926511   2.297   2.024   3.216  0.2907 -0.2191  0.0221
   38PEO   H21A26512   2.365   2.059   3.138  0.0024  3.5523  1.2889
   38PEO   H21B26513   2.353   1.954   3.281 -0.1560 -1.1129 -0.5290
   38PEO   O21C26514   2.170   1.969   3.173 -0.2076  0.8539 -0.5593
   38PEO   H21D26515   2.268   1.815   3.078  1.6353  2.3099  0.5118
   38PEO   H21E26516   2.212   1.950   2.979 -2.9424  1.1264  0.5067
   38PEO   C21F26517   2.184   1.885   3.063 -0.3601  0.0641  0.6341
   38PEO   C22026518   2.049   1.808   3.053 -0.8337 -0.2433 -0.3504
   38PEO   H22126519   2.061   1.738   2.969  0.0395  1.9570 -2.1347
   38PEO   H22226520   2.016   1.752   3.142  0.1713  0.7878  0.6985
   38PEO   O22326521   1.949   1.904   3.019 -0.6118  0.1671  0.1201
   38PEO   H22426522   1.920   2.071   3.151  0.8320  0.1682 -0.3566
   38PEO   H22526523   1.894   1.901   3.219  1.3150  0.8291  0.6790
   38PEO   C22626524   1.885   1.968   3.132  0.9252  0.0485  0.1083
   38PEO   C22726525   1.728   1.989   3.110 -0.2291 -0.0503 -0.0607
   38PEO   H22826526   1.684   1.897   3.071 -1.0751  0.3002  0.0563
   38PEO   H22926527   1.682   2.026   3.203  1.3473  0.1162  0.6916
   38PEO   O22A26528   1.722   2.101   3.016  0.2350  0.0073  0.0583
   38PEO   H22B26529   1.657   1.968   2.877  3.0478 -1.2345 -4.4550
   38PEO   H22C26530   1.805   2.069   2.839 -0.4141  0.3129 -1.3081
   38PEO   C22D26531   1.702   2.068   2.878 -0.0767  0.4119 -0.3927
   38PEO   C22E26532   1.615   2.181   2.808  0.5616  0.1951  1.1225
   38PEO   H22F26533   1.654   2.281   2.832  0.4838  0.2441  1.0450
   38PEO   H23026534   1.617   2.168   2.699  3.1344  2.6260  0.7796
   38PEO   O23126535   1.480   2.157   2.845 -0.1411  0.0627 -0.1839
   38PEO   H23226536   1.391   2.193   2.673  2.2332  2.6137  0.2447
   38PEO   H23326537   1.392   2.340   2.757 -1.3512  0.0700 -2.4670
   38PEO   C23426538   1.377   2.233   2.775  0.0365  0.3250  0.9373
   38PEO   C23526539   1.242   2.198   2.849 -0.2040 -0.7805 -0.4037
   38PEO   H23626540   1.162   2.194   2.773 -0.3629 -1.1421 -0.2258
   38PEO   H23726541   1.244   2.096   2.891  1.5884 -0.1781  1.0992
   38PEO   O23826542   1.217   2.292   2.958 -0.4842  0.5158  0.1304
   38PEO   H23926543   1.108   2.161   3.086  2.1458  0.6163  0.3093
   38PEO   H23A26544   1.018   2.255   2.963 -0.7423  1.3186  0.5758
   38PEO   C23B26545   1.099   2.259   3.037  0.0469  0.2060 -0.2020
   38PEO   C23C26546   1.071   2.372   3.141 -0.0615  0.6075  0.0450
   38PEO   H23D26547   0.988   2.343   3.208 -1.0157 -0.5134 -1.5664
   38PEO   H23E26548   1.151   2.396   3.213  0.6635  0.9432 -0.8494
   38PEO   O23F26549   1.038   2.492   3.050  0.2444  0.0950 -0.0262
   38PEO   H24026550   1.084   2.660   3.180  0.7098 -0.3092  0.4426
   38PEO   H24126551   0.932   2.578   3.208 -0.8032 -0.0941 -0.5179
   38PEO   C24226552   1.000   2.611   3.128 -0.1546  1.0598  0.4748
   38PEO   C24326553   0.926   2.710   3.039  0.5910  0.0528 -0.0815
   38PEO   H24426554   0.898   2.665   2.943 -1.0425  1.8203 -0.4676
   38PEO   H24526555   0.833   2.736   3.092  0.3661 -0.5848 -0.1516
   38PEO   O24626556   1.011   2.816   3.020  0.1827  0.0644  0.3748
   38PEO   H24726557   0.854   2.933   2.950  0.9529  2.2307  1.2704
   38PEO   H24826558   0.976   2.895   2.824  0.3552 -0.7288 -0.1543
   38PEO   C24926559   0.961   2.921   2.930  0.4571  0.1126 -0.3324
   38PEO   C24A26560   1.010   3.057   2.975 -0.5149 -0.4695  0.8832
   38PEO   H24B26561   0.955   3.127   2.910  0.0167 -2.2171 -1.5589
   38PEO   H24C26562   0.988   3.079   3.081  1.3051 -0.1951  1.2371
   38PEO   O24D26563   1.144   3.076   2.937  0.6348  0.1496 -0.2362
   38PEO   H24E26564   1.332   3.172   2.969  0.0745 -0.1856  0.1553
   38PEO   H24F26565   1.203   3.193   3.097  0.1954 -1.6385 -0.4790
   38PEO   C25026566   1.225   3.187   2.989 -0.1054 -0.3439 -0.6283
   38PEO   C25126567   1.180   3.322   2.927  0.3916  0.0421  0.1913
   38PEO   H25226568   1.261   3.397   2.927 -0.6447  1.2575 -1.8978
   38PEO   H25326569   1.147   3.312   2.823 -1.0105  1.7240  0.4294
   38PEO   O25426570   1.077   3.373   3.004 -0.6611  0.4504  0.1747
   38PEO   H25526571   0.978   3.442   2.849  2.4214  1.0632  0.0708
   38PEO   H25626572   0.987   3.555   2.996  1.9721 -0.0966 -0.5373
   38PEO   C25726573   0.975   3.452   2.959 -0.3676 -0.1417  0.1814
   38PEO   C25826574   0.842   3.398   3.013 -0.1129 -0.9995 -0.2582
   38PEO   H25926575   0.767   3.454   2.956  0.9196  1.2956  0.5141
   38PEO   H25A26576   0.848   3.291   2.989 -0.0695 -1.2629  0.8480
   38PEO   O25B26577   0.825   3.437   3.151  0.2409 -0.3943 -0.5012
   38PEO   H25C26578   0.965   3.302   3.226  1.2768  2.5729  1.4798
   38PEO   H25D26579   0.792   3.252   3.234 -1.6218  1.5452 -0.2226
   38PEO   C25E26580   0.862   3.336   3.244  0.1236  0.1219  0.1466
   38PEO   C25F26581   0.851   3.391   3.387 -0.6979  0.3888 -0.1826
   38PEO   H26026582   0.908   3.319   3.447 -2.4663  0.9956  2.3783
   38PEO   H26126583   0.888   3.493   3.403 -1.1133  0.4593  0.3567
   38PEO   O26226584   0.713   3.389   3.426  0.6451  0.4053 -0.8073
   38PEO   H26326585   0.533   3.449   3.377  0.5051 -1.4665 -1.7158
   38PEO   H26426586   0.662   3.543   3.300 -2.4291 -0.2974 -0.7195
   38PEO   C26526587   0.629   3.498   3.395 -0.0612 -0.8777 -0.1060
   38PEO   C26626588   0.613   3.610   3.499 -0.1332 -0.2627  1.2132
   38PEO   H26726589   0.534   3.679   3.466  0.3826  0.3001  1.1349
   38PEO   H26826590   0.580   3.564   3.593  0.7745  1.8609  2.6525
   38PEO   O26926591   0.734   3.687   3.519  0.1262 -0.6778 -0.3438
   38PEO   H26A26592   0.647   3.823   3.640  0.8614  1.1585 -0.9549
   38PEO   H26B26593   0.820   3.851   3.602 -1.1319 -0.1260 -0.7348
   38PEO   C26C26594   0.744   3.775   3.627 -0.0916 -1.0510 -0.3427
   38PEO   C26D26595   0.791   3.682   3.742  0.1018  0.6543  0.6150
   38PEO   H26E26596   0.839   3.597   3.690 -3.1186  0.1245 -1.7574
   38PEO   H26F26597   0.850   3.738   3.816  3.1306 -1.1365 -0.2391
   38PEO   O27026598   0.673   3.634   3.813  0.3165 -0.2271  0.1155
   38PEO   H27126599   0.779   3.582   3.989  1.0870 -3.1593  0.5771
   38PEO   H27226600   0.735   3.452   3.878  0.4293 -1.0801  1.0185
   38PEO   C27326601   0.701   3.547   3.920  0.7387 -0.1875 -0.6674
   38PEO   C27426602   0.571   3.520   4.003 -0.3933 -0.8560  0.2319
   38PEO   H27526603   0.487   3.497   3.936  0.8428 -2.9048 -0.6978
   38PEO   H27626604   0.585   3.427   4.060 -1.9717 -0.0763  2.0057
   38PEO   O27726605   0.536   3.620   4.101 -0.0565 -0.4869 -0.0177
   38PEO   H27826606   0.470   3.457   4.217 -1.9966 -0.0445  0.5943
   38PEO   H27926607   0.340   3.566   4.177  0.2543 -0.5544  0.5267
   38PEO   C27A26608   0.447   3.564   4.204  0.2781  0.4793  0.5405
   38PEO   C27B26609   0.476   3.636   4.335  0.5867  0.1825  0.6592
   38PEO   H27C26610   0.500   3.742   4.323 -0.9897  0.5786  0.8443
   38PEO   H27D26611   0.391   3.640   4.404  0.5132 -5.0190  1.3054
   38PEO   O27E26612   0.568   3.556   4.408  0.2390  0.2258  0.3600
   38PEO   H27F26613   0.504   3.571   4.601  0.3126 -1.0344  1.6565
   38PEO   H28026614   0.625   3.696   4.546  2.5844 -1.6937  1.4672
   38PEO   C28126615   0.596   3.591   4.543 -0.8817 -0.8186 -0.2431
   38PEO   C28226616   0.722   3.516   4.597  0.3659 -0.1408  0.1859
   38PEO   H28326617   0.703   3.479   4.699  1.4239 -0.2270  0.3664
   38PEO   H28426618   0.748   3.422   4.546 -1.0415  0.4386 -1.6975
   38PEO   O28526619   0.833   3.607   4.595 -0.3055  0.0860  0.5455
   38PEO   H28626620   0.814   3.646   4.381 -1.5421 -0.4142  1.0118
   38PEO   H28726621   0.932   3.527   4.440 -0.0145 -0.3910  2.3182
   38PEO   C28826622   0.885   3.624   4.462 -0.5372 -0.1316  0.2296
   38PEO   C28926623   1.009   3.721   4.467  0.1988  0.0853  0.3624
   38PEO   H28A26624   1.060   3.711   4.564  3.5268  0.5149 -1.2062
   38PEO   H28B26625   1.070   3.685   4.383 -1.5415 -1.4125 -0.3292
   38PEO   O28C26626   0.975   3.857   4.450  0.4458  0.2297  0.1904
   38PEO   H28D26627   1.121   3.907   4.303  1.4101  1.0270  0.5800
   38PEO   H28E26628   1.176   3.931   4.469 -0.9659  0.8026  1.0360
   38PEO   C28F26629   1.087   3.935   4.404 -0.1615  1.5104 -0.0433
   38PEO   C29026630   1.041   4.084   4.392 -0.4649  0.0009  0.8066
   38PEO   H29126631   1.110   4.130   4.321  1.3485  2.3719  3.8707
   38PEO   H29226632   0.933   4.088   4.368 -0.5389 -2.5107  0.4566
   38PEO   O29326633   1.071   4.149   4.517 -0.4355 -0.2105 -0.1503
   38PEO   H29426634   0.937   4.321   4.496 -0.8341 -0.4176  1.7951
   38PEO   H29526635   1.104   4.342   4.443 -1.5249  0.9143 -0.5230
   38PEO   C29626636   1.040   4.287   4.515 -0.2459  0.3840  0.2466
   38PEO   C29726637   1.076   4.336   4.655 -0.0632  0.5671 -0.5867
   38PEO   H29826638   1.019   4.429   4.670 -0.7618 -0.1930  1.9926
   38PEO   H29926639   1.037   4.275   4.737 -0.4237 -2.3179 -2.7398
   38PEO   O29A26640   1.216   4.382   4.658 -0.3110 -0.9827 -0.0401
   38PEO   H29B26641   1.372   4.453   4.791  0.4085 -2.7945  0.4569
   38PEO   H29C26642   1.251   4.355   4.863  1.4886  0.1612  0.6386
   38PEO   C29D26643   1.265   4.430   4.784 -0.1172 -0.3951 -0.2157
   38PEO   C29E26644   1.196   4.563   4.832 -0.2222 -0.4256  0.4255
   38PEO   H29F26645   1.264   4.607   4.907  0.5559 -0.0364 -0.4742
   38PEO   H2A026646   1.186   4.639   4.753 -1.9422 -1.7869 -0.7499
   38PEO   O2A126647   1.062   4.548   4.891  0.0497  0.1960  0.2775
   38PEO   H2A226648   1.120   4.614   5.077 -0.0779  0.6913 -1.1108
   38PEO   H2A326649   1.119   4.428   5.052 -1.8026 -1.7555 -3.7220
   38PEO   C2A426650   1.070   4.525   5.036 -0.4754 -0.0394  0.8345
   38PEO   C2A526651   0.929   4.526   5.093  0.2512 -0.1486  0.0213
   38PEO   H2A626652   0.891   4.429   5.056  2.8743  0.2164 -4.4615
   38PEO   H2A726653   0.930   4.532   5.202 -2.2016  1.3315  0.0313
   38PEO   O2A826654   0.847   4.638   5.049  0.0733 -0.5945 -0.2984
   38PEO   H2A926655   0.696   4.576   5.183  0.7325 -2.5817 -1.3900
   38PEO   H2AA26656   0.678   4.520   5.013  0.0828 -0.6482 -1.0974
   38PEO   C2AB26657   0.706   4.604   5.077 -1.0850 -0.2859 -1.0340
   38PEO   C2AC26658   0.622   4.729   5.070  0.2002 -0.0138  0.3311
   38PEO   H2AD26659   0.634   4.781   4.974 -1.3626  1.6047  0.9534
   38PEO   H2AE26660   0.517   4.697   5.080  0.3319 -0.0437  2.0297
   38PEO   O2AF26661   0.656   4.814   5.182  0.1302  0.2415 -0.0225
   38PEO   H2B026662   0.489   4.925   5.265  0.8007 -0.2280  1.9897
   38PEO   H2B126663   0.542   4.976   5.104  1.5886  0.7847 -0.0415
   38PEO   C2B226664   0.577   4.932   5.198 -0.4729 -0.4311  0.2112
   38PEO   C2B326665   0.664   5.033   5.272  0.0675  0.0892  0.4967
   38PEO   H2B426666   0.611   5.053   5.366  0.0851 -1.7437  0.9212
   38PEO   H2B526667   0.760   4.992   5.304  1.0972 -0.2721 -2.6585
   38PEO   O2B626668   0.681   5.152   5.191  0.5539  0.4881  0.3054
   38PEO   H2B726669   0.846   5.260   5.280 -0.0455  1.3017  1.8467
   38PEO   H2B826670   0.694   5.268   5.357  0.1651 -1.0756 -0.2986
   38PEO   C2B926671   0.739   5.266   5.256  0.3005  0.0080 -0.2767
   38PEO   C2BA26672   0.697   5.390   5.169 -0.3003 -0.0526 -0.0365
   38PEO   H2BB26673   0.775   5.462   5.194  1.8526 -1.8659 -1.1467
   38PEO   H2BC26674   0.720   5.377   5.062  1.3674 -0.5604  0.3476
   38PEO   O2BD26675   0.561   5.424   5.188 -0.6601  0.2173 -0.1384
   38PEO   H2BE26676   0.515   5.348   5.151  2.2443 -2.0717  0.5758
   39PEO   H00126677   3.649   1.593   4.428  0.1663  0.2725  0.9738
   39PEO   H00226678   3.553   1.452   4.457 -0.4850  0.8865 -0.1656
   39PEO   H00326679   3.620   1.530   4.598 -1.4077  1.2217  0.0080
   39PEO   C00426680   3.642   1.505   4.493 -0.2121 -0.0350  0.5284
   39PEO   C00526681   3.773   1.433   4.473 -0.5883 -0.2774 -0.1394
   39PEO   H00626682   3.770   1.387   4.373  1.2821  0.5809 -0.6417
   39PEO   H00726683   3.850   1.512   4.475 -1.1381  0.2961 -1.2725
   39PEO   O00826684   3.788   1.338   4.585 -0.0597 -0.0768  0.0156
   39PEO   H00926685   3.986   1.359   4.650  0.5860  0.2597 -1.1147
   39PEO   H00A26686   3.965   1.280   4.495  2.5367 -1.3683  1.3176
   39PEO   C00B26687   3.923   1.287   4.596  0.0629 -0.3671  0.3030
   39PEO   C00C26688   3.931   1.140   4.652 -0.3427 -0.1631 -0.1856
   39PEO   H00D26689   3.884   1.064   4.588  3.4613 -2.8655 -0.1261
   39PEO   H00E26690   4.037   1.111   4.654 -0.9421 -2.4843 -0.0256
   39PEO   O00F26691   3.870   1.143   4.780  0.4291  1.3952  0.3658
   39PEO   H01026692   3.855   1.019   4.957  1.4212  0.0711  0.1790
   39PEO   H01126693   3.999   1.011   4.867  0.0907  1.3657  0.2962
   39PEO   C01226694   3.890   1.015   4.852  0.1018  0.1974 -0.2775
   39PEO   C01326695   3.834   0.897   4.774  0.5722  0.2970 -0.5529
   39PEO   H01426696   3.893   0.873   4.685 -0.2515  0.7503 -1.2282
   39PEO   H01526697   3.829   0.804   4.833  1.8272 -0.6263 -1.8356
   39PEO   O01626698   3.709   0.924   4.726  0.2695  0.0908  0.1548
   39PEO   H01726699   3.656   0.724   4.683  1.1464  0.1571 -0.5106
   39PEO   H01826700   3.708   0.821   4.537  1.9544  1.0929 -0.3777
   39PEO   C01926701   3.662   0.823   4.637  0.7670  0.0131 -0.8777
   39PEO   C01A26702   3.507   0.855   4.613 -0.8119 -0.1325 -0.1705
   39PEO   H01B26703   3.446   0.764   4.611 -1.1368  0.0899 -0.3425
   39PEO   H01C26704   3.470   0.909   4.702 -4.5381 -1.5186 -0.6992
   39PEO   O01D26705   3.490   0.938   4.496 -0.1063 -0.2092  0.7806
   39PEO   H01E26706   3.644   1.073   4.540 -0.8590 -1.3818  1.1995
   39PEO   H01F26707   3.480   1.131   4.588 -1.5318 -0.8113 -0.2050
   39PEO   C02026708   3.537   1.071   4.516 -0.5977  0.1932 -0.3299
   39PEO   C02126709   3.526   1.136   4.374  0.1071 -0.0541  0.0508
   39PEO   H02226710   3.565   1.239   4.369 -2.8785  1.3014  2.0758
   39PEO   H02326711   3.596   1.088   4.303  0.3040  1.5617 -0.9034
   39PEO   O02426712   3.391   1.150   4.325  0.1303 -0.1231 -0.1888
   39PEO   H02526713   3.349   1.336   4.434 -0.5433 -0.2156  0.5060
   39PEO   H02626714   3.300   1.191   4.511 -1.5515 -1.9109 -1.5090
   39PEO   C02726715   3.308   1.236   4.411  0.6170 -0.4309 -0.7379
   39PEO   C02826716   3.160   1.248   4.360  0.3286 -0.3867  0.3197
   39PEO   H02926717   3.104   1.334   4.398  2.0146  0.2943  1.3767
   39PEO   H02A26718   3.155   1.248   4.250  1.9509  2.8021  0.1244
   39PEO   O02B26719   3.099   1.127   4.411 -0.1399 -1.1796  0.7310
   39PEO   H02C26720   2.928   1.165   4.277  0.1538 -0.0440 -0.6572
   39PEO   H02D26721   2.908   1.188   4.453 -0.8105  1.9776 -2.1349
   39PEO   C02E26722   2.962   1.131   4.376  0.5362  0.8854 -0.4559
   39PEO   C02F26723   2.912   0.982   4.381  0.3639 -0.7875  0.0339
   39PEO   H03026724   2.960   0.936   4.468  1.1456  0.4645  0.3073
   39PEO   H03126725   2.806   0.962   4.397  0.8114 -0.4930  4.7232
   39PEO   O03226726   2.963   0.925   4.259 -0.6082 -0.4255  0.5293
   39PEO   H03326727   2.963   0.758   4.152 -0.1970 -3.2138  0.1820
   39PEO   H03426728   2.858   0.750   4.298 -0.0934  1.4827  1.0516
   39PEO   C03526729   2.957   0.777   4.260 -0.0821 -0.2309 -0.2754
   39PEO   C03626730   3.067   0.714   4.351  0.0127  0.1849  0.4663
   39PEO   H03726731   3.096   0.622   4.298 -0.9068 -0.4417  1.0298
   39PEO   H03826732   3.162   0.769   4.363 -0.1348  1.0754 -1.9930
   39PEO   O03926733   2.997   0.686   4.473 -0.8998 -0.2870  0.0926
   39PEO   H03A26734   3.177   0.617   4.566 -1.0898  3.3186 -1.6117
   39PEO   H03B26735   3.064   0.492   4.512  4.0888 -0.3787 -0.7656
   39PEO   C03C26736   3.070   0.592   4.558 -0.5533 -0.4293  0.4555
   39PEO   C03D26737   3.009   0.588   4.700  0.1161 -0.2786 -0.0692
   39PEO   H03E26738   2.900   0.584   4.682  0.3011  2.0160 -2.2769
   39PEO   H03F26739   3.022   0.485   4.736 -1.1806  0.3355  2.3978
   39PEO   O04026740   3.051   0.701   4.785  0.3782 -0.1171  0.0245
   39PEO   H04126741   3.074   0.576   4.957  1.3866  0.5385  1.0473
   39PEO   H04226742   3.126   0.745   4.970  0.1990 -0.2880  1.1234
   39PEO   C04326743   3.126   0.657   4.903  0.2326  0.5766 -0.0603
   39PEO   C04426744   3.271   0.615   4.877 -0.1337 -0.3060 -1.3963
   39PEO   H04526745   3.328   0.681   4.810 -1.0383  3.0252  0.8661
   39PEO   H04626746   3.330   0.625   4.969  1.2531  0.7831 -2.3658
   39PEO   O04726747   3.266   0.481   4.826  0.1299 -0.5730 -1.1116
   39PEO   H04826748   3.366   0.299   4.807  0.6320 -1.4780  2.5552
   39PEO   H04926749   3.409   0.401   4.947 -0.7307  2.0264  0.6506
   39PEO   C04A26750   3.389   0.401   4.839 -0.3904 -0.5618  0.5145
   39PEO   C04B26751   3.512   0.455   4.760  0.7370  0.0885 -0.1407
   39PEO   H04C26752   3.529   0.562   4.777  1.3632 -0.1651  0.8885
   39PEO   H04D26753   3.599   0.398   4.795 -0.2009 -0.7518  0.9343
   39PEO   O04E26754   3.486   0.426   4.619  0.3160 -0.2907 -0.5346
   39PEO   H04F26755   3.669   0.360   4.571 -1.7209 -0.8610  1.1196
   39PEO   H05026756   3.653   0.535   4.564 -0.2225  0.6498 -3.0594
   39PEO   C05126757   3.600   0.440   4.543 -0.2506 -0.0235 -0.2673
   39PEO   C05226758   3.566   0.428   4.395  0.5096 -0.3875 -0.2989
   39PEO   H05326759   3.500   0.513   4.372  0.2737  0.1074  1.9372
   39PEO   H05426760   3.657   0.431   4.333  0.6725 -0.6260 -0.0739
   39PEO   O05526761   3.494   0.307   4.384  0.1862 -0.4639  0.4329
   39PEO   H05626762   3.556   0.305   4.191  1.0891  1.6587  2.1750
   39PEO   H05726763   3.444   0.171   4.242 -0.7336  1.2032 -1.9851
   39PEO   C05826764   3.525   0.239   4.273 -0.4094 -0.1139  0.2921
   39PEO   C05926765   3.642   0.144   4.299 -0.3564 -0.0581  0.0835
   39PEO   H05A26766   3.627   0.085   4.391  0.5390 -3.2119 -1.6652
   39PEO   H05B26767   3.650   0.065   4.223  2.2364 -0.1093  0.3138
   39PEO   O05C26768   3.777   0.196   4.305  0.0823  0.1546  0.2466
   39PEO   H05D26769   3.980   0.171   4.281 -0.2655  1.7484  0.1439
   39PEO   H05E26770   3.884   0.038   4.192  0.3261  0.9396 -0.1124
   39PEO   C05F26771   3.891   0.107   4.278  0.5662  0.5610  0.1737
   39PEO   C06026772   3.907   0.024   4.408 -0.5960  0.6758 -0.4696
   39PEO   H06126773   3.827  -0.051   4.411  0.2206 -0.3304 -2.4607
   39PEO   H06226774   4.002  -0.031   4.415 -1.2744 -0.7930 -2.2495
   39PEO   O06326775   3.881   0.102   4.531  0.1892 -0.1062  0.4384
   39PEO   H06426776   3.854  -0.073   4.632 -1.4365  0.8370 -2.6832
   39PEO   H06526777   3.861   0.067   4.729 -1.0724 -2.4230  0.5388
   39PEO   C06626778   3.911   0.021   4.642 -0.1484 -0.0992 -0.2424
   39PEO   C06726779   4.062   0.010   4.676 -0.8002  0.3837 -0.1213
   39PEO   H06826780   4.062  -0.083   4.736 -4.4492  0.1947 -0.1761
   39PEO   H06926781   4.118  -0.000   4.581 -0.2422 -1.6980  0.3666
   39PEO   O06A26782   4.116   0.125   4.756 -0.7413  0.0127  0.1453
   39PEO   H06B26783   4.316   0.033   4.784  0.9241  0.7415  1.3153
   39PEO   H06C26784   4.206   0.015   4.917  1.2397  0.8343  2.4044
   39PEO   C06D26785   4.234   0.085   4.836 -0.6789 -0.6749  0.2907
   39PEO   C06E26786   4.307   0.206   4.895 -0.8207  0.0716 -0.0362
   39PEO   H06F26787   4.399   0.169   4.942  0.2041  2.5676  0.0620
   39PEO   H07026788   4.328   0.287   4.824 -0.4502 -0.2514 -0.2975
   39PEO   O07126789   4.223   0.252   4.997 -0.5439 -0.1441 -0.2823
   39PEO   H07226790   4.334   0.418   5.043  0.2675 -0.7891  0.0672
   39PEO   H07326791   4.371   0.284   5.144 -0.0023 -1.4805 -0.8892
   39PEO   C07426792   4.286   0.334   5.095 -0.0215 -0.7545 -0.1368
   39PEO   C07526793   4.173   0.396   5.185 -0.6081  0.2839 -0.0458
   39PEO   H07626794   4.224   0.470   5.248  0.3455 -0.4756  0.1025
   39PEO   H07726795   4.094   0.456   5.138 -0.5783  0.6348  0.3492
   39PEO   O07826796   4.115   0.298   5.282  0.5235  0.4739  0.1127
   39PEO   H07926797   3.937   0.294   5.385 -0.4625  1.2220 -1.0160
   39PEO   H07A26798   3.981   0.455   5.344 -2.8194 -1.3322  1.1817
   39PEO   C07B26799   4.025   0.360   5.377  0.8469 -0.3772 -0.4544
   39PEO   C07C26800   4.102   0.377   5.504  0.1027 -0.4805  0.4048
   39PEO   H07D26801   4.204   0.402   5.471 -1.7673  2.0378 -4.5912
   39PEO   H07E26802   4.062   0.469   5.550  1.5711  0.1587  0.4369
   39PEO   O07F26803   4.099   0.270   5.599  0.1700 -0.8085  0.0455
   39PEO   H08026804   4.207   0.131   5.485  2.2868  1.9541  1.8672
   39PEO   H08126805   4.038   0.090   5.524  1.5165  0.1863 -4.5169
   39PEO   C08226806   4.129   0.137   5.562 -0.0086  0.0135 -0.1380
   39PEO   C08326807   4.208   0.077   5.686 -0.7183 -0.0495  0.0582
   39PEO   H08426808   4.156   0.113   5.776 -1.8494 -1.9698  0.2197
   39PEO   H08526809   4.195  -0.033   5.689 -0.5004 -0.0995 -0.7033
   39PEO   O08626810   4.349   0.117   5.677  0.7691  0.2449 -0.3502
   39PEO   H08726811   4.379   0.123   5.877  0.4159  0.1397  0.4215
   39PEO   H08826812   4.529   0.124   5.783 -0.2301  0.7173  1.7248
   39PEO   C08926813   4.430   0.078   5.791 -0.1252  0.1394  0.0971
   39PEO   C08A26814   4.449  -0.070   5.815 -0.2271 -0.3246 -0.3701
   39PEO   H08B26815   4.486  -0.119   5.724  2.5096  0.7213  0.0919
   39PEO   H08C26816   4.528  -0.087   5.889 -0.5033  0.4359  0.1166
   39PEO   O08D26817   4.316  -0.128   5.853 -0.4069  0.8121 -0.6989
   39PEO   H08E26818   4.361  -0.241   6.034  0.6013  1.3511  2.2961
   39PEO   H08F26819   4.196  -0.179   6.021  0.4676 -0.9824  1.0036
   39PEO   C09026820   4.302  -0.154   6.001 -0.0038  0.0344 -0.4141
   39PEO   C09126821   4.332  -0.042   6.102 -0.1568 -0.1291  0.1518
   39PEO   H09226822   4.291   0.052   6.062 -2.2143 -1.3374 -0.6847
   39PEO   H09326823   4.294  -0.080   6.198  3.1095 -1.7007  0.9719
   39PEO   O09426824   4.473  -0.025   6.121  0.5795  0.1790  0.1742
   39PEO   H09526825   4.611   0.060   6.265 -2.4932 -0.0042  3.5921
   39PEO   H09626826   4.447   0.104   6.289  0.0112 -0.1847  0.0774
   39PEO   C09726827   4.522   0.091   6.209 -0.2392  0.2815 -0.2364
   39PEO   C09826828   4.557   0.222   6.127  0.1645 -0.4733 -0.7473
   39PEO   H09926829   4.583   0.303   6.197  0.5004 -1.4013  0.2318
   39PEO   H09A26830   4.630   0.203   6.046  0.1199  0.3754 -0.9897
   39PEO   O09B26831   4.432   0.254   6.061  0.0537  0.3465  0.1244
   39PEO   H09C26832   4.511   0.354   5.898  0.7029  0.6422  0.7476
   39PEO   H09D26833   4.479   0.455   6.040 -1.2888  0.4728  0.3761
   39PEO   C09E26834   4.442   0.369   5.982 -0.4460  0.4384 -0.1234
   39PEO   C09F26835   4.303   0.406   5.938  0.3844 -0.0690  0.2407
   39PEO   H0A026836   4.294   0.478   5.856  0.4488 -0.8760 -0.4797
   39PEO   H0A126837   4.251   0.314   5.910  0.9746 -0.4898  0.5171
   39PEO   O0A226838   4.239   0.468   6.050  0.5045  0.9649 -0.0053
   39PEO   H0A326839   4.035   0.434   6.006  1.8822 -0.9814 -0.2622
   39PEO   H0A426840   4.118   0.590   5.945  2.4112 -1.4969 -1.1820
   39PEO   C0A526841   4.107   0.515   6.025 -0.1719  0.7208  0.7428
   39PEO   C0A626842   4.054   0.586   6.142 -0.0022 -0.0511 -0.7692
   39PEO   H0A726843   3.956   0.624   6.112  0.2773  0.4761 -1.0240
   39PEO   H0A826844   4.042   0.515   6.226  1.5234 -0.4698 -0.8766
   39PEO   O0A926845   4.140   0.695   6.177 -0.6265  0.4811 -0.4750
   39PEO   H0AA26846   4.159   0.689   6.390  1.0510  0.0469 -0.9364
   39PEO   H0AB26847   4.050   0.815   6.336  2.5399  3.0268  4.8260
   39PEO   C0AC26848   4.140   0.759   6.307 -0.4293  0.1501 -0.5399
   39PEO   C0AD26849   4.256   0.849   6.315 -0.1275 -0.3358 -0.3433
   39PEO   H0AE26850   4.255   0.876   6.422 -0.8347  1.3786 -0.7334
   39PEO   H0AF26851   4.352   0.805   6.285  0.4153  0.8092 -0.3511
   39PEO   O0B026852   4.225   0.959   6.227 -0.7486 -0.2808  0.8514
   39PEO   H0B126853   4.222   0.848   6.040  3.3674 -0.0043 -1.3352
   39PEO   H0B226854   4.368   0.938   6.084  0.2933 -2.7676 -1.4806
   39PEO   C0B326855   4.258   0.940   6.087  0.2792  0.2910  0.7533
   39PEO   C0B426856   4.211   1.052   6.000  0.6212 -0.0151 -0.8688
   39PEO   H0B526857   4.155   1.009   5.916  0.0380  1.7169 -1.4209
   39PEO   H0B626858   4.145   1.115   6.061 -0.9073 -0.3226 -2.1263
   39PEO   O0B726859   4.327   1.126   5.958 -0.3729 -0.3123 -0.1144
   39PEO   H0B826860   4.334   1.077   5.751  0.0650 -0.3925 -0.6519
   39PEO   H0B926861   4.418   0.958   5.856 -0.2513 -0.4143  1.1727
   39PEO   C0BA26862   4.399   1.065   5.839 -0.2503 -0.6507 -0.4519
   39PEO   C0BB26863   4.535   1.133   5.820 -0.7756  0.1020 -0.0396
   39PEO   H0BC26864   4.602   1.082   5.750  2.1165  2.6049  0.6595
   39PEO   H0BD26865   4.518   1.238   5.790  0.6512  0.6758  1.0088
   39PEO   O0BE26866   4.595   1.139   5.954  0.5232  0.7076  0.1719
   39PEO   H0BF26867   4.785   1.096   6.061  0.6721  0.7111  0.1313
   39PEO   H0C026868   4.786   1.117   5.887  0.1247  1.8518  1.0660
   39PEO   C0C126869   4.725   1.078   5.970  0.2670  0.2784  0.4767
   39PEO   C0C226870   4.697   0.925   5.973  0.3944  0.2273 -0.8446
   39PEO   H0C326871   4.782   0.874   6.021  0.2895  1.8170  1.1325
   39PEO   H0C426872   4.616   0.922   6.047  2.0383 -0.4993  1.0221
   39PEO   O0C526873   4.651   0.879   5.849  0.1290  0.0891  0.4619
   39PEO   H0C626874   4.563   0.742   5.952  2.0287  0.3377  2.5730
   39PEO   H0C726875   4.719   0.687   5.873 -1.1736 -1.3575 -0.4150
   39PEO   C0C826876   4.627   0.747   5.863 -0.5174 -0.1166  0.6092
   39PEO   C0C926877   4.541   0.691   5.744  0.2216 -0.5543  0.3945
   39PEO   H0CA26878   4.606   0.696   5.655  0.3183 -0.6199  0.4609
   39PEO   H0CB26879   4.518   0.585   5.766  0.3732 -0.9859 -1.3108
   39PEO   O0CC26880   4.421   0.764   5.736  0.0334  0.0060 -0.7757
   39PEO   H0CD26881   4.289   0.633   5.658  1.2334 -0.6663 -0.0661
   39PEO   H0CE26882   4.397   0.682   5.534  0.1978 -2.8438  0.6413
   39PEO   C0CF26883   4.342   0.722   5.621  0.4996 -0.2986 -0.2575
   39PEO   C0D026884   4.234   0.826   5.578  0.3404  0.2899 -0.2857
   39PEO   H0D126885   4.150   0.774   5.529  0.1492  0.8466 -0.5682
   39PEO   H0D226886   4.191   0.874   5.667 -0.6328 -0.8405 -0.1190
   39PEO   O0D326887   4.295   0.912   5.486  0.5761  0.4445  0.3489
   39PEO   H0D426888   4.187   1.095   5.530 -0.2364 -0.0712 -0.0868
   39PEO   H0D526889   4.129   1.002   5.412 -0.4910  1.7929  1.0673
   39PEO   C0D626890   4.228   1.035   5.447  0.5146 -0.4512  0.5393
   39PEO   C0D726891   4.307   1.115   5.341 -0.0675 -0.5310 -0.1766
   39PEO   H0D826892   4.260   1.214   5.355 -1.6188 -1.1600 -0.7422
   39PEO   H0D926893   4.416   1.122   5.356 -0.2374  1.7906  0.3479
   39PEO   O0DA26894   4.291   1.074   5.206 -0.3910 -0.3216  0.5156
   39PEO   H0DB26895   4.186   1.250   5.171 -1.0711 -0.4609  0.3812
   39PEO   H0DC26896   4.189   1.135   5.028 -0.2566  0.2986  0.8867
   39PEO   C0DD26897   4.247   1.183   5.108  0.4268  1.3736 -0.2157
   39PEO   C0DE26898   4.358   1.248   5.026  0.5683  0.1021  0.3271
   39PEO   H0DF26899   4.439   1.173   5.023  2.6231  1.9654  3.0871
   39PEO   H0E026900   4.321   1.263   4.924  0.9517  0.8107  0.2815
   39PEO   O0E126901   4.431   1.353   5.094 -0.1457 -0.2580 -0.0406
   39PEO   H0E226902   4.284   1.470   5.176 -1.7889  1.1576 -1.8669
   39PEO   H0E326903   4.294   1.481   5.001  0.7508  2.4039 -0.6640
   39PEO   C0E426904   4.356   1.477   5.092  0.2170  0.1188 -0.3311
   39PEO   C0E526905   4.453   1.604   5.083  0.2721 -0.0790  0.6229
   39PEO   H0E626906   4.535   1.583   5.013 -0.9837  0.3087 -1.0111
   39PEO   H0E726907   4.397   1.685   5.035  0.6641 -1.2538 -1.9695
   39PEO   O0E826908   4.520   1.646   5.208  0.2304  0.1751 -0.3695
   39PEO   H0E926909   4.504   1.851   5.159 -1.5213  0.3650  1.3650
   39PEO   H0EA26910   4.672   1.786   5.145 -0.2184 -1.9353  0.6313
   39PEO   C0EB26911   4.578   1.782   5.203 -0.8806 -0.0151 -0.2349
   39PEO   C0EC26912   4.605   1.801   5.353  0.5026 -0.0709 -0.6353
   39PEO   H0ED26913   4.667   1.725   5.402 -0.5836  0.6248  2.0343
   39PEO   H0EE26914   4.659   1.895   5.371 -2.6205  2.2463 -2.3538
   39PEO   O0EF26915   4.478   1.808   5.431 -0.7176  0.3812 -0.6056
   39PEO   H0F026916   4.562   1.888   5.601 -0.2261 -0.0511 -0.8699
   39PEO   H0F126917   4.519   1.714   5.607 -2.0817 -0.0100  1.0624
   39PEO   C0F226918   4.490   1.812   5.568 -0.1689 -0.1303 -0.8147
   39PEO   C0F326919   4.348   1.844   5.629 -0.1307 -0.3241  0.3579
   39PEO   H0F426920   4.275   1.801   5.558 -1.4124  0.3397  1.2259
   39PEO   H0F526921   4.340   1.784   5.720 -0.9082 -1.7673 -0.6143
   39PEO   O0F626922   4.303   1.980   5.652 -0.5445 -0.1339  0.4334
   39PEO   H0F726923   4.124   1.961   5.543 -1.7519 -1.4230  2.5588
   39PEO   H0F826924   4.164   2.126   5.581 -4.2530 -0.6387 -1.4591
   39PEO   C0F926925   4.166   2.024   5.623  0.4653 -0.0207  0.3993
   39PEO   C0FA26926   4.082   2.024   5.746  0.2532 -0.7044 -0.7145
   39PEO   H0FB26927   4.149   2.073   5.818  0.9011  0.1054 -1.8459
   39PEO   H0FC26928   3.989   2.081   5.732  0.9811  0.8388  0.4187
   39PEO   O0FD26929   4.062   1.886   5.780  0.5770  0.2516 -0.4212
   39PEO   H0FE26930   3.889   1.912   5.879 -0.2559 -1.2087 -2.2550
   39PEO   H0FF26931   4.035   1.950   5.967 -0.7330  2.2495 -1.8396
   39PEO   C10026932   3.990   1.874   5.901 -0.1150  0.2627 -0.0745
   39PEO   C10126933   3.989   1.732   5.952 -0.1861  1.3606  0.3089
   39PEO   H10226934   4.084   1.683   5.926  0.9197  3.8972 -0.7972
   39PEO   H10326935   3.975   1.741   6.061 -2.4128  1.5900  0.0558
   39PEO   O10426936   3.867   1.679   5.900 -0.0287 -0.5303 -0.4031
   39PEO   H10526937   3.942   1.519   5.811  1.6534 -0.2039 -0.3544
   39PEO   H10626938   3.912   1.658   5.696  0.9236  3.2465  2.5408
   39PEO   C10726939   3.875   1.602   5.784  0.5684 -0.9393 -0.0278
   39PEO   C10826940   3.731   1.545   5.736  0.2050  0.1063 -0.2870
   39PEO   H10926941   3.749   1.465   5.663  1.5803 -1.1972  1.4141
   39PEO   H10A26942   3.675   1.496   5.817 -1.3093  3.6984  1.0500
   39PEO   O10B26943   3.649   1.639   5.681 -0.4647 -0.6304  0.4086
   39PEO   H10C26944   3.665   1.752   5.858  0.9429 -1.9251 -0.6232
   39PEO   H10D26945   3.511   1.661   5.829  1.8850 -1.1559  1.0832
   39PEO   C10E26946   3.592   1.718   5.783  0.5016 -0.6299 -0.8021
   39PEO   C10F26947   3.533   1.844   5.723  0.5673 -0.4606  0.8092
   39PEO   H11026948   3.469   1.890   5.800  0.5588  3.5697 -1.3357
   39PEO   H11126949   3.607   1.922   5.697  2.2187 -2.0501  0.5360
   39PEO   O11226950   3.464   1.813   5.606 -0.5878  0.4340 -0.3572
   39PEO   H11326951   3.486   2.005   5.549  0.7006 -0.4579  0.3851
   39PEO   H11426952   3.334   1.987   5.646  0.8522  0.8572 -0.4452
   39PEO   C11526953   3.401   1.940   5.572  0.4055 -0.2754 -0.1505
   39PEO   C11626954   3.322   1.916   5.441 -0.0067 -0.6719  0.1316
   39PEO   H11726955   3.248   1.838   5.462  0.1589 -0.3629  2.1212
   39PEO   H11826956   3.261   2.004   5.416  1.0952  0.3331  0.8454
   39PEO   O11926957   3.404   1.889   5.334  0.0423  0.7685  0.5345
   39PEO   H11A26958   3.509   2.085   5.337  0.5892  0.9478 -0.6561
   39PEO   H11B26959   3.392   2.064   5.220 -0.6170  0.4143  0.2253
   39PEO   C11C26960   3.466   2.005   5.275 -0.3876  0.7391  0.2709
   39PEO   C11D26961   3.559   1.965   5.155 -0.2681  0.0581  0.1140
   39PEO   H11E26962   3.611   2.059   5.131 -0.9303  0.1896 -0.8882
   39PEO   H11F26963   3.637   1.898   5.192  1.2724  0.9030 -1.4594
   39PEO   O12026964   3.480   1.913   5.047  0.3097 -0.5850  0.5512
   39PEO   H12126965   3.472   1.819   4.860 -0.9019 -0.0096 -0.7097
   39PEO   H12226966   3.639   1.863   4.912  0.6289  1.1420 -0.0455
   39PEO   C12326967   3.532   1.890   4.918 -0.1147 -1.5842  0.4815
   39PEO   C12426968   3.519   2.019   4.826 -0.1559  0.4238  0.6791
   39PEO   H12526969   3.509   2.109   4.889 -1.5078  1.0131 -0.3047
   39PEO   H12626970   3.602   2.033   4.756  0.8259  0.5751  1.8512
   39PEO   O12726971   3.399   2.019   4.747 -0.5179 -0.1853 -0.3625
   39PEO   H12826972   3.280   1.899   4.883  0.8411  1.5759  2.2966
   39PEO   H12926973   3.206   1.953   4.731 -1.8216  0.9482  1.1752
   39PEO   C12A26974   3.275   1.983   4.812 -0.1498 -0.1607  0.2042
   39PEO   C12B26975   3.200   2.103   4.881 -0.2002  0.0331  0.3289
   39PEO   H12C26976   3.136   2.063   4.961 -1.4307  2.0128  0.3743
   39PEO   H12D26977   3.270   2.176   4.924 -0.7507 -0.0466  1.3826
   39PEO   O12E26978   3.105   2.159   4.783 -0.0512  0.5409 -0.2821
   39PEO   H12F26979   3.193   2.331   4.748 -1.3661  0.5414 -1.1321
   39PEO   H13026980   3.102   2.347   4.898  1.7570  0.9022  0.1266
   39PEO   C13126981   3.099   2.303   4.798 -0.6107  0.4850  0.3168
   39PEO   C13226982   2.989   2.354   4.706 -0.3788  0.2527  0.6948
   39PEO   H13326983   3.015   2.445   4.649 -0.4790 -0.3066 -0.2578
   39PEO   H13426984   2.955   2.278   4.635 -0.6880 -0.3303  1.4632
   39PEO   O13526985   2.872   2.377   4.781 -0.3883 -0.0014 -0.2846
   39PEO   H13626986   2.735   2.299   4.638 -0.2328 -0.1513 -1.4535
   39PEO   H13726987   2.770   2.464   4.607 -1.4790 -3.2023 -3.0006
   39PEO   C13826988   2.758   2.393   4.690 -0.3133 -0.6495 -0.5035
   39PEO   C13926989   2.634   2.437   4.784  0.0579 -0.7329  0.1162
   39PEO   H13A26990   2.646   2.542   4.814  1.0111 -0.6484 -0.4939
   39PEO   H13B26991   2.544   2.433   4.720  1.2849 -1.0401 -1.6546
   39PEO   O13C26992   2.620   2.341   4.893  0.4832  0.0491  0.0833
   39PEO   H13D26993   2.586   2.181   4.751  0.9759 -3.8922  1.4568
   39PEO   H13E26994   2.452   2.243   4.844  0.2366  0.8854  0.1378
   39PEO   C13F26995   2.560   2.219   4.850 -0.0365 -0.4726  0.0300
   39PEO   C14026996   2.582   2.112   4.956  1.1154 -0.0158 -0.2726
   39PEO   H14126997   2.580   2.161   5.054 -0.0264 -2.2065  0.8727
   39PEO   H14226998   2.492   2.049   4.951 -0.4897  2.0978  0.6007
   39PEO   O14326999   2.712   2.041   4.941  0.1046  0.7051  0.4049
   39PEO   H14427000   2.817   2.221   4.922  1.1986 -0.1818 -1.7126
   39PEO   H14527001   2.912   2.068   4.914 -1.6228 -4.0309  1.8093
   39PEO   C14627002   2.828   2.120   4.963 -0.2121  0.3456  0.0925
   39PEO   C14727003   2.867   2.132   5.111 -0.2577 -0.1399  0.4950
   39PEO   H14827004   2.914   2.229   5.134 -1.3450 -0.2875  3.8648
   39PEO   H14927005   2.774   2.128   5.170 -2.4659  0.7767 -2.6559
   39PEO   O14A27006   2.957   2.028   5.156 -0.1476  0.1392 -0.4037
   39PEO   H14B27007   2.835   1.878   5.059  0.7918  0.1125 -0.4979
   39PEO   H14C27008   2.802   1.895   5.233  0.2083  1.5758 -0.3813
   39PEO   C14D27009   2.880   1.901   5.157  0.3571  0.3206 -0.3429
   39PEO   C14E27010   2.985   1.786   5.175  0.0329  0.1712  0.2885
   39PEO   H14F27011   3.044   1.810   5.264 -1.8677  0.2718  1.5955
   39PEO   H15027012   2.929   1.693   5.196 -0.2291  0.7873  2.5389
   39PEO   O15127013   3.067   1.774   5.057  0.3963 -0.0039 -0.1074
   39PEO   H15227014   3.248   1.767   5.150 -0.6835 -0.3466  1.8246
   39PEO   H15327015   3.249   1.707   4.984 -0.0741  0.0615 -0.0531
   39PEO   C15427016   3.192   1.705   5.078  0.5500  0.1864  0.3387
   39PEO   C15527017   3.171   1.558   5.129  0.2200 -0.1135 -0.3933
   39PEO   H15627018   3.101   1.502   5.066 -2.4418 -0.5858  2.7210
   39PEO   H15727019   3.262   1.496   5.119  0.7817  0.3472  1.4819
   39PEO   O15827020   3.122   1.544   5.267  0.1012 -0.5682  0.8266
   39PEO   H15927021   3.189   1.367   5.305  1.4145  2.5133 -2.4282
   39PEO   H15A27022   3.022   1.354   5.247  3.0660 -2.6439  1.2687
   39PEO   C15B27023   3.090   1.413   5.310  0.3260  0.2459  1.7202
   39PEO   C15C27024   3.051   1.409   5.455 -0.7558  0.0913  0.8180
   39PEO   H15D27025   3.097   1.316   5.490  1.3079  1.2807  1.4027
   39PEO   H15E27026   3.109   1.490   5.503  2.5604 -1.8785  0.4050
   39PEO   O15F27027   2.904   1.407   5.474 -0.4872  0.6613  0.0081
   39PEO   H16027028   2.836   1.490   5.290 -0.4908  1.0455  0.1509
   39PEO   H16127029   2.884   1.601   5.426 -0.9082  0.8663  1.8330
   39PEO   C16227030   2.833   1.508   5.398 -0.0713  0.8504  0.1987
   39PEO   C16327031   2.688   1.507   5.451 -0.3089  0.1688  0.7115
   39PEO   H16427032   2.622   1.570   5.389  0.0789 -2.4031 -2.5621
   39PEO   H16527033   2.643   1.407   5.441  0.6405 -0.0895 -1.5199
   39PEO   O16627034   2.679   1.557   5.586 -0.1863 -0.0420  0.4627
   39PEO   H16727035   2.497   1.644   5.601  4.5123  2.2553 -0.1371
   39PEO   H16827036   2.572   1.586   5.754 -0.2618  1.9234 -0.1054
   39PEO   C16927037   2.551   1.561   5.649  0.2075 -0.6278  0.3373
   39PEO   C16A27038   2.456   1.436   5.647  0.0922 -0.2849 -0.3715
   39PEO   H16B27039   2.514   1.345   5.624 -1.1266 -0.2576 -4.4874
   39PEO   H16C27040   2.408   1.410   5.742 -0.2076 -4.6796 -1.4627
   39PEO   O16D27041   2.361   1.450   5.542  0.1882  0.3748  0.7171
   39PEO   H16E27042   2.282   1.652   5.581 -1.5764  1.4026 -1.6480
   39PEO   H16F27043   2.193   1.516   5.659 -0.8293  1.6212 -0.3269
   39PEO   C17027044   2.254   1.546   5.573  0.4623  0.6300  0.2103
   39PEO   C17127045   2.163   1.525   5.448 -0.0378  0.4804  0.0675
   39PEO   H17227046   2.084   1.601   5.452 -1.6187 -1.1452  1.0318
   39PEO   H17327047   2.224   1.544   5.358  0.2987  1.4211  0.4791
   39PEO   O17427048   2.100   1.401   5.442  0.6634  0.0249  0.2172
   39PEO   H17527049   2.141   1.362   5.246 -0.0856 -0.2602  0.2392
   39PEO   H17627050   1.976   1.444   5.277  0.9527  1.9075  0.2676
   39PEO   C17727051   2.051   1.371   5.310 -0.1368  0.6393  0.0575
   39PEO   C17827052   2.011   1.222   5.327  0.3613 -0.7942  0.0156
   39PEO   H17927053   1.949   1.214   5.418 -1.8390  2.8938 -0.9161
   39PEO   H17A27054   1.950   1.212   5.236 -1.1960 -1.3722  1.0850
   39PEO   O17B27055   2.130   1.141   5.320 -0.2477  0.7484  1.3234
   39PEO   H17C27056   2.192   1.188   5.520  1.5760  0.2635  0.6915
   39PEO   H17D27057   2.310   1.226   5.395  1.2396 -1.1711  2.0472
   39PEO   C17E27058   2.232   1.154   5.423 -0.4261 -0.2739 -0.0011
   39PEO   C17F27059   2.301   1.014   5.446 -0.4585  0.2357 -0.1000
   39PEO   H18027060   2.337   0.978   5.348 -0.1285  0.1845  0.0397
   39PEO   H18127061   2.395   1.030   5.500  0.7449  0.2951 -2.1188
   39PEO   O18227062   2.215   0.914   5.513  0.1961  0.1067 -0.0126
   39PEO   H18327063   2.198   0.734   5.607  1.1068 -1.3498 -1.5530
   39PEO   H18427064   2.370   0.791   5.598  0.5407  0.4855 -1.2612
   39PEO   C18527065   2.273   0.787   5.546  0.3126  0.6305 -0.8509
   39PEO   C18627066   2.304   0.702   5.423 -0.2417 -0.0161  0.3189
   39PEO   H18727067   2.275   0.599   5.451 -2.2511  0.4817  0.2763
   39PEO   H18827068   2.249   0.752   5.342 -0.0144 -0.4332 -0.1008
   39PEO   O18927069   2.452   0.695   5.394  0.7249  0.2308  0.5368
   39PEO   H18A27070   2.542   0.513   5.332  1.2766 -2.2410  1.4239
   39PEO   H18B27071   2.486   0.516   5.499 -0.3252 -1.1620 -1.2079
   39PEO   C18C27072   2.529   0.579   5.419 -0.5887  0.0262 -0.4425
   39PEO   C18D27073   2.676   0.616   5.453 -0.5359 -0.0596  0.9414
   39PEO   H18E27074   2.660   0.688   5.534 -0.1931  0.6041  0.4325
   39PEO   H18F27075   2.744   0.533   5.478 -1.8252 -1.9631 -1.4388
   39PEO   O19027076   2.745   0.671   5.336 -0.2359  0.4113 -0.0972
   39PEO   H19127077   2.733   0.883   5.357  1.9278 -1.3999  0.7952
   39PEO   H19227078   2.614   0.801   5.255  0.8236 -2.4424 -1.9857
   39PEO   C19327079   2.721   0.805   5.281  0.4107 -0.1580 -0.3002
   39PEO   C19427080   2.805   0.843   5.164  0.7086  0.3989  0.4411
   39PEO   H19527081   2.802   0.953   5.159  0.5914  0.3834  0.1607
   39PEO   H19627082   2.905   0.796   5.170  0.8289  0.7164  1.0983
   39PEO   O19727083   2.733   0.786   5.049 -0.4583  0.9747  0.1742
   39PEO   H19827084   2.869   0.888   4.928 -0.6698  2.0500 -1.9737
   39PEO   H19927085   2.699   0.943   4.912 -0.0711  0.4001  1.7907
   39PEO   C19A27086   2.763   0.856   4.929 -0.1409  0.0762  0.4539
   39PEO   C19B27087   2.740   0.757   4.814 -0.3168 -0.2676 -0.2952
   39PEO   H19C27088   2.804   0.799   4.734 -1.2067 -1.7047 -1.8247
   39PEO   H19D27089   2.783   0.658   4.836  1.8547  0.5894 -0.4581
   39PEO   O19E27090   2.607   0.750   4.779  0.8851 -0.1842  0.5142
   39PEO   H19F27091   2.591   0.545   4.745 -2.2462 -0.6838 -0.1772
   39PEO   H1A027092   2.652   0.628   4.603  1.1218  3.8035  0.1817
   39PEO   C1A127093   2.580   0.636   4.686 -0.5338 -0.6585 -0.5154
   39PEO   C1A227094   2.431   0.641   4.632  0.0914  0.1760 -0.3640
   39PEO   H1A327095   2.408   0.724   4.563 -0.8953  2.3447  2.3975
   39PEO   H1A427096   2.410   0.549   4.576 -1.8465  1.8469 -2.6104
   39PEO   O1A527097   2.336   0.642   4.742 -0.2558 -0.3203 -0.6436
   39PEO   H1A627098   2.174   0.750   4.665 -1.9053  1.1930  1.9453
   39PEO   H1A727099   2.150   0.673   4.821  3.4998 -0.3629  1.5406
   39PEO   C1A827100   2.193   0.657   4.721 -0.2237  0.0685 -0.3196
   39PEO   C1A927101   2.136   0.537   4.652  0.2302  0.1319  0.0667
   39PEO   H1AA27102   2.197   0.448   4.673 -1.1493 -1.6392 -2.7595
   39PEO   H1AB27103   2.033   0.517   4.686  0.0731  0.4141 -0.2268
   39PEO   O1AC27104   2.171   0.569   4.511 -0.1404 -0.0087 -0.6219
   39PEO   H1AD27105   2.007   0.590   4.397 -2.0608 -1.1317  0.9784
   39PEO   H1AE27106   2.048   0.413   4.436 -1.3495  1.0070 -1.5861
   39PEO   C1AF27107   2.085   0.513   4.410  0.2151  0.7288 -0.5799
   39PEO   C1B027108   2.153   0.487   4.273 -0.3307 -0.1732 -0.4032
   39PEO   H1B127109   2.087   0.474   4.186  1.1712  0.9848 -1.7867
   39PEO   H1B227110   2.213   0.573   4.241 -1.1888  0.4178 -0.4689
   39PEO   O1B327111   2.221   0.371   4.299  0.3221  0.8350 -0.5777
   39PEO   H1B427112   2.355   0.241   4.188  1.8232  2.2528  1.7236
   39PEO   H1B527113   2.299   0.384   4.110  1.3553 -1.2104 -0.6086
   39PEO   C1B627114   2.265   0.302   4.174  0.1078 -0.5045 -0.3441
   39PEO   C1B727115   2.143   0.222   4.115 -0.1382 -0.9721 -0.2798
   39PEO   H1B827116   2.048   0.277   4.111 -1.5167 -3.1971  0.1016
   39PEO   H1B927117   2.163   0.207   4.008 -3.0025 -1.8849 -0.7639
   39PEO   O1BA27118   2.135   0.095   4.179 -0.6882 -0.1513 -0.2124
   39PEO   H1BB27119   2.045   0.035   3.998  4.3000 -0.5412 -0.4975
   39PEO   H1BC27120   1.947   0.045   4.145  0.9300  1.4188 -0.3595
   39PEO   C1BD27121   2.045   0.013   4.105  0.3993 -0.3404 -0.3474
   39PEO   C1BE27122   2.091  -0.134   4.120  0.2019  0.6950  0.3272
   39PEO   H1BF27123   2.057  -0.200   4.039 -0.9701 -1.5876  2.5670
   39PEO   H1C027124   2.201  -0.137   4.112  0.1085  0.2939 -1.1334
   39PEO   O1C127125   2.045  -0.191   4.247  0.1960  0.3342 -0.1803
   39PEO   H1C227126   2.161  -0.317   4.357  1.6353 -1.2322 -1.8250
   39PEO   H1C327127   2.137  -0.368   4.193 -1.6391  0.5350 -0.8020
   39PEO   C1C427128   2.084  -0.325   4.279 -0.5746  0.1028  0.0878
   39PEO   C1C527129   1.958  -0.402   4.324  0.1867 -0.1155  0.2019
   39PEO   H1C627130   1.890  -0.421   4.240 -0.4500  3.3459 -0.1723
   39PEO   H1C727131   1.981  -0.505   4.355 -1.7821 -0.8030 -0.4575
   39PEO   O1C827132   1.891  -0.346   4.437 -0.6550 -0.4625 -0.3382
   39PEO   H1C927133   1.792  -0.511   4.523  1.3484  0.0041 -0.1772
   39PEO   H1CA27134   1.696  -0.424   4.394 -2.9030  0.3765  2.1196
   39PEO   C1CB27135   1.770  -0.415   4.475  0.1520 -0.3552 -0.3699
   39PEO   C1CC27136   1.704  -0.335   4.582  1.2802 -0.0857 -0.4269
   39PEO   H1CD27137   1.622  -0.394   4.627 -0.9619  0.9533 -2.8526
   39PEO   H1CE27138   1.782  -0.323   4.659  1.8711 -2.2082 -0.6304
   39PEO   O1CF27139   1.648  -0.208   4.533  0.9129  0.1396  0.0056
   39PEO   H1D027140   1.814  -0.117   4.624  0.4588 -0.4347  0.1340
   39PEO   H1D127141   1.672  -0.012   4.599 -0.2764  0.9944 -1.8648
   39PEO   C1D227142   1.731  -0.095   4.556  0.0571 -0.1925  0.6987
   39PEO   C1D327143   1.776  -0.044   4.414  0.4579 -0.2048 -0.8643
   39PEO   H1D427144   1.886  -0.039   4.411  0.4077  0.7001 -3.4030
   39PEO   H1D527145   1.744  -0.115   4.337 -1.8885 -1.6999  1.3142
   39PEO   O1D627146   1.714   0.090   4.380 -0.3485 -0.2961 -0.2658
   39PEO   H1D727147   1.891   0.208   4.423  0.1623  1.3605  0.0517
   39PEO   H1D827148   1.774   0.193   4.544  0.9862  1.9779 -0.0844
   39PEO   C1D927149   1.782   0.203   4.435  0.1578  0.3743 -0.3130
   39PEO   C1DA27150   1.700   0.332   4.398 -0.3468 -0.1047 -0.1118
   39PEO   H1DB27151   1.592   0.312   4.394 -0.1441 -1.0070 -1.5947
   39PEO   H1DC27152   1.709   0.411   4.475 -0.2172 -0.8639  0.6708
   39PEO   O1DD27153   1.748   0.395   4.270  0.1827  0.3111  0.8345
   39PEO   H1DE27154   1.650   0.254   4.152 -1.3123  1.7900 -0.5330
   39PEO   H1DF27155   1.832   0.250   4.132  1.9716  1.1542  0.2801
   39PEO   C1E027156   1.743   0.312   4.151  0.4161 -0.7762 -0.2663
   39PEO   C1E127157   1.730   0.411   4.025  0.5095 -0.3639 -1.2544
   39PEO   H1E227158   1.681   0.372   3.935  1.6114  1.3793 -2.6972
   39PEO   H1E327159   1.674   0.504   4.045  2.2015  1.2304 -3.3963
   39PEO   O1E427160   1.862   0.448   3.996 -0.5029  0.5299 -0.2027
   39PEO   H1E527161   1.818   0.622   3.917  2.0216 -0.3298  1.7984
   39PEO   H1E627162   1.806   0.481   3.799  0.3699 -3.7152  1.2264
   39PEO   C1E727163   1.859   0.526   3.884  0.0339 -0.6093 -0.0583
   39PEO   C1E827164   2.010   0.552   3.846  0.5559  0.5446 -0.4272
   39PEO   H1E927165   2.076   0.468   3.869  0.2348 -0.4550 -2.8160
   39PEO   H1EA27166   2.014   0.574   3.738 -3.6826  0.1459 -0.8517
   39PEO   O1EB27167   2.042   0.669   3.915  0.0739 -0.0831 -0.3034
   39PEO   H1EC27168   2.237   0.656   3.831  0.0270  2.1242 -3.1615
   39PEO   H1ED27169   2.221   0.767   3.952  0.0134 -0.8094 -0.3794
   39PEO   C1EE27170   2.160   0.725   3.870 -1.0047 -0.6678  0.2853
   39PEO   C1EF27171   2.135   0.829   3.756 -0.1547 -0.2710 -0.2934
   39PEO   H1F027172   2.235   0.856   3.718  0.0844 -0.4776  0.1728
   39PEO   H1F127173   2.089   0.766   3.679  0.7338 -2.4281  0.8382
   39PEO   O1F227174   2.051   0.940   3.798  0.0454  0.0989 -0.2037
   39PEO   H1F327175   2.141   0.991   3.992 -0.0915 -0.1848  0.0826
   39PEO   H1F427176   2.039   1.106   3.929  1.1560  0.7783  1.3794
   39PEO   C1F527177   2.112   1.032   3.894  0.1100  0.2581  0.2041
   39PEO   C1F627178   2.237   1.102   3.832  0.4588 -0.3228  0.4625
   39PEO   H1F727179   2.221   1.091   3.724 -0.1911 -0.3196  0.5557
   39PEO   H1F827180   2.240   1.210   3.854  1.4842 -0.2068 -0.1664
   39PEO   O1F927181   2.345   1.017   3.879 -0.4762  0.3166  0.7508
   39PEO   H1FA27182   2.532   0.969   3.917  3.0406 -0.6993 -3.0047
   39PEO   H1FB27183   2.525   1.126   3.828 -0.5471  1.0041  1.0428
   39PEO   C1FC27184   2.483   1.025   3.837  0.1583  0.5284 -0.5903
   39PEO   C1FD27185   2.492   0.942   3.707 -1.0395 -0.2524 -0.1918
   39PEO   H1FE27186   2.600   0.922   3.696 -0.8689  0.4073  0.2196
   39PEO   H1FF27187   2.445   0.843   3.708  1.7065 -1.7550 -2.7972
   39PEO   O20027188   2.435   1.024   3.612 -0.7615  0.1552 -0.1022
   39PEO   H20127189   2.465   0.880   3.456  2.6522 -0.6721  0.7213
   39PEO   H20227190   2.543   1.048   3.442 -3.0099  4.1400  0.1435
   39PEO   C20327191   2.458   0.988   3.476 -0.2277 -0.5720 -0.3540
   39PEO   C20427192   2.339   1.048   3.397 -0.1184  0.4716  0.6559
   39PEO   H20527193   2.349   1.004   3.297  0.0941 -0.5386  1.1136
   39PEO   H20627194   2.247   1.016   3.448  0.6650 -0.1660  1.6938
   39PEO   O20727195   2.358   1.186   3.370 -0.3665  1.3167  0.1064
   39PEO   H20827196   2.264   1.345   3.284  1.3338  0.4624 -1.9248
   39PEO   H20927197   2.158   1.199   3.332  0.9710 -1.2536  3.0890
   39PEO   C20A27198   2.253   1.235   3.289 -0.9871  0.7019 -0.0274
   39PEO   C20B27199   2.272   1.194   3.142  0.4073  0.4904 -0.0740
   39PEO   H20C27200   2.237   1.278   3.080  1.8590  1.6244  0.5552
   39PEO   H20D27201   2.375   1.161   3.117  0.8702 -0.9103  3.2001
   39PEO   O20E27202   2.191   1.080   3.113 -0.3674  0.4260  0.2511
   39PEO   H20F27203   2.268   1.074   2.906  0.7684 -3.1373 -2.0851
   39PEO   H21027204   2.129   0.986   2.930  1.8222 -0.6964 -1.6605
   39PEO   C21127205   2.220   1.013   2.985  0.1332  0.6089  0.6891
   39PEO   C21227206   2.308   0.888   2.985 -0.0131 -0.3269  0.0389
   39PEO   H21327207   2.301   0.839   2.887 -0.3113  0.5284 -0.3726
   39PEO   H21427208   2.411   0.896   3.024 -0.1260 -1.6805  0.6788
   39PEO   O21527209   2.244   0.812   3.095  0.9558  0.4349  0.8431
   39PEO   H21627210   2.417   0.729   3.173  0.2524  0.9705 -1.3053
   39PEO   H21727211   2.326   0.621   3.062 -0.2510 -0.7328  1.4404
   39PEO   C21827212   2.316   0.698   3.141 -0.1728 -0.1627  0.9052
   39PEO   C21927213   2.232   0.641   3.250  0.0040  0.0566 -0.7056
   39PEO   H21A27214   2.281   0.543   3.264  2.2079  0.8240 -2.4053
   39PEO   H21B27215   2.241   0.703   3.340 -0.9835  0.8645 -1.1429
   39PEO   O21C27216   2.092   0.618   3.215 -0.3519  0.2946  0.7512
   39PEO   H21D27217   2.053   0.483   3.353 -0.5232 -0.0203 -0.1037
   39PEO   H21E27218   1.913   0.527   3.260  0.0254 -1.3572  0.7787
   39PEO   C21F27219   2.001   0.570   3.310 -0.1917  0.1908 -0.0880
   39PEO   C22027220   1.955   0.666   3.425 -0.4714  0.3408  0.3532
   39PEO   H22127221   1.901   0.610   3.503 -0.5733 -0.7654 -0.4919
   39PEO   H22227222   2.044   0.705   3.475 -2.3723  4.7357  0.7768
   39PEO   O22327223   1.879   0.779   3.372  0.3729  0.0452 -0.0130
   39PEO   H22427224   1.993   0.852   3.212  2.1908 -0.0787  1.7795
   39PEO   H22527225   2.028   0.934   3.356 -0.9433  0.1659 -0.0456
   39PEO   C22627226   1.942   0.891   3.302 -1.0104  0.2325  0.0079
   39PEO   C22727227   1.853   1.012   3.261  0.2886 -1.5924 -0.2373
   39PEO   H22827228   1.921   1.084   3.214  0.4268 -1.3888  0.2686
   39PEO   H22927229   1.776   0.995   3.184 -0.0524 -0.8873 -0.0549
   39PEO   O22A27230   1.796   1.063   3.384  0.4363 -0.9082  0.7739
   39PEO   H22B27231   1.643   1.177   3.323 -0.5798  0.7737  0.1390
   39PEO   H22C27232   1.805   1.261   3.306  0.0868 -0.5698 -0.0633
   39PEO   C22D27233   1.741   1.197   3.368 -0.2716 -0.2249 -0.0752
   39PEO   C22E27234   1.711   1.251   3.508 -0.0827  0.2370  0.2987
   39PEO   H22F27235   1.610   1.294   3.518 -0.4523 -1.0382  3.0560
   39PEO   H23027236   1.723   1.167   3.578 -1.8528  0.3075  0.7344
   39PEO   O23127237   1.810   1.343   3.545 -0.5313  0.4005  0.2768
   39PEO   H23227238   1.979   1.228   3.482  0.3671 -0.3349  0.4901
   39PEO   H23327239   1.933   1.219   3.658  0.6146 -1.5092 -1.8306
   39PEO   C23427240   1.941   1.284   3.570 -0.1168  0.6955 -0.3488
   39PEO   C23527241   2.040   1.393   3.603 -0.1596 -0.3323  0.9750
   39PEO   H23627242   1.988   1.466   3.666 -0.7802  1.1782 -1.1715
   39PEO   H23727243   2.127   1.359   3.660  0.8716  0.5967 -0.0188
   39PEO   O23827244   2.085   1.451   3.478  0.0024  0.7677 -0.3244
   39PEO   H23927245   2.154   1.602   3.601  1.7366 -1.5348 -1.7796
   39PEO   H23A27246   2.020   1.636   3.483  0.0498  0.9116  1.1197
   39PEO   C23B27247   2.118   1.588   3.499  0.0502 -0.0821 -1.4309
   39PEO   C23C27248   2.212   1.627   3.386  0.2210 -0.3990 -0.1915
   39PEO   H23D27249   2.193   1.562   3.300  1.5911 -0.3676 -0.5417
   39PEO   H23E27250   2.224   1.733   3.362  1.1277 -0.7849 -1.5649
   39PEO   O23F27251   2.339   1.570   3.428 -0.0868 -0.1411 -0.1973
   39PEO   H24027252   2.551   1.604   3.428 -0.5377 -2.1042  0.2873
   39PEO   H24127253   2.468   1.711   3.316  0.7078 -1.6143 -3.7859
   39PEO   C24227254   2.465   1.610   3.360 -0.6610  0.1050  0.5766
   39PEO   C24327255   2.485   1.511   3.244 -0.7135 -0.0720 -0.0254
   39PEO   H24427256   2.588   1.525   3.210 -0.9254  1.7473 -0.0024
   39PEO   H24527257   2.475   1.407   3.280 -2.7295 -0.4288 -1.4070
   39PEO   O24627258   2.394   1.548   3.145  0.6813 -0.0478 -0.3414
   39PEO   H24727259   2.422   1.379   3.018 -0.9703 -0.9355  1.0646
   39PEO   H24827260   2.512   1.527   2.970 -0.1248 -0.3687  0.5177
   39PEO   C24927261   2.418   1.489   3.013 -0.1780 -0.9470 -0.0986
   39PEO   C24A27262   2.307   1.532   2.924  0.2332  0.8710  0.6255
   39PEO   H24B27263   2.311   1.640   2.902 -0.7189  0.6984 -0.4513
   39PEO   H24C27264   2.323   1.489   2.824  3.6448  1.4912  0.7756
   39PEO   O24D27265   2.179   1.500   2.977  0.1961  0.4214 -0.4919
   39PEO   H24E27266   2.105   1.412   2.800 -4.1263  1.7827 -2.7087
   39PEO   H24F27267   2.014   1.553   2.851  0.0845 -1.0230 -1.5537
   39PEO   C25027268   2.070   1.466   2.889  0.1096 -0.1558  0.5213
   39PEO   C25127269   1.975   1.370   2.956 -0.3883  0.1356  0.2455
   39PEO   H25227270   1.923   1.310   2.880 -0.2197  0.9304 -0.5077
   39PEO   H25327271   2.022   1.295   3.020  0.3500  0.2418 -0.1672
   39PEO   O25427272   1.878   1.433   3.032 -0.0935 -0.0887  0.4333
   39PEO   H25527273   2.020   1.544   3.137 -0.9976  0.8794 -2.3879
   39PEO   H25627274   1.953   1.405   3.231 -1.4271  0.2209  0.2360
   39PEO   C25727275   1.929   1.486   3.160 -0.0776  0.1529 -0.3279
   39PEO   C25827276   1.821   1.568   3.227 -0.0457 -0.3892  0.0679
   39PEO   H25927277   1.871   1.622   3.308 -0.8693  2.3427 -1.1261
   39PEO   H25A27278   1.788   1.646   3.157 -0.4111 -0.7838 -0.2075
   39PEO   O25B27279   1.712   1.483   3.263 -0.3747  0.1312  0.3269
   39PEO   H25C27280   1.584   1.609   3.167  1.0778  1.1470  0.4286
   39PEO   H25D27281   1.584   1.630   3.342 -2.7901  2.4487 -2.1152
   39PEO   C25E27282   1.587   1.554   3.262 -0.4926  0.1532 -0.0522
   39PEO   C25F27283   1.461   1.464   3.265  1.0848  0.0903 -0.3871
   39PEO   H26027284   1.489   1.380   3.330  1.0604  0.6887  0.4112
   39PEO   H26127285   1.379   1.516   3.316  0.4027 -1.7817  0.5018
   39PEO   O26227286   1.423   1.415   3.139 -0.5270 -0.0021  0.4613
   39PEO   H26327287   1.502   1.217   3.162 -1.3057  0.8323 -0.3380
   39PEO   H26427288   1.603   1.332   3.068 -0.1338  0.2987  0.8785
   39PEO   C26527289   1.500   1.301   3.090 -0.5807  0.4771 -0.7821
   39PEO   C26627290   1.431   1.247   2.964  0.9921 -0.2532 -0.2446
   39PEO   H26727291   1.395   1.331   2.902  1.9628 -0.7621 -1.5453
   39PEO   H26827292   1.510   1.190   2.914  0.4232  1.7321 -3.7677
   39PEO   O26927293   1.325   1.160   3.011  0.3476  0.3945  0.6758
   39PEO   H26A27294   1.344   1.018   2.848 -1.3224 -2.7771  1.6302
   39PEO   H26B27295   1.206   1.135   2.831 -1.7793 -4.9309 -2.6479
   39PEO   C26C27296   1.270   1.080   2.900  0.1575  0.3092  0.3291
   39PEO   C26D27297   1.170   0.977   2.968  0.3975  0.0574 -0.1648
   39PEO   H26E27298   1.108   0.935   2.887 -1.9102  0.0343  1.5199
   39PEO   H26F27299   1.226   0.902   3.026  0.2999 -1.3849 -1.8512
   39PEO   O27027300   1.072   1.050   3.046  0.2785  0.4593  0.5830
   39PEO   H27127301   1.074   0.943   3.222  0.6914 -1.7925 -1.3542
   39PEO   H27227302   0.994   0.853   3.101  1.4949 -1.2805  1.8405
   39PEO   C27327303   1.009   0.957   3.135 -0.3885 -0.1942 -0.3599
   39PEO   C27427304   0.873   1.031   3.177 -0.2098 -0.0713  0.2369
   39PEO   H27527305   0.849   1.042   3.284 -0.0193  2.1460  0.1046
   39PEO   H27627306   0.880   1.130   3.129  0.1216 -0.2664 -0.1257
   39PEO   O27727307   0.760   0.958   3.118  0.1740  0.9563 -0.2517
   39PEO   H27827308   0.611   1.096   3.113  0.6268  1.2923  1.9136
   39PEO   H27927309   0.641   1.029   3.272  2.4497  4.0630 -0.9144
   39PEO   C27A27310   0.630   1.001   3.166 -0.3743  0.0891  0.2002
   39PEO   C27B27311   0.515   0.907   3.133  0.0869 -0.0816  1.0321
   39PEO   H27C27312   0.425   0.957   3.171  1.0564  1.9576  0.8488
   39PEO   H27D27313   0.506   0.900   3.023  0.5288  1.5696  0.8559
   39PEO   O27E27314   0.533   0.781   3.202 -0.2499  0.5533  0.2454
   39PEO   H27F27315   0.426   0.621   3.290  1.2775  0.2434  0.7843
   39PEO   H28027316   0.324   0.719   3.184 -0.9464  1.2098  0.5293
   39PEO   C28127317   0.406   0.725   3.258 -0.4471 -0.2548  0.1230
   39PEO   C28227318   0.371   0.803   3.388  0.2409 -0.1243 -0.2833
   39PEO   H28327319   0.343   0.904   3.355  0.4009 -0.3847 -1.2472
   39PEO   H28427320   0.286   0.764   3.447  1.4727 -0.7553  1.1426
   39PEO   O28527321   0.487   0.798   3.468 -0.6654 -0.0157 -0.0296
   39PEO   H28627322   0.367   0.787   3.637 -1.6214  2.7159  0.1915
   39PEO   H28727323   0.472   0.929   3.625  2.5163 -0.3121 -0.6893
   39PEO   C28827324   0.468   0.821   3.609 -0.4631 -0.3999  0.2009
   39PEO   C28927325   0.585   0.761   3.700  0.0269  0.0007 -0.2801
   39PEO   H28A27326   0.679   0.745   3.646  1.0539  5.7137 -0.7404
   39PEO   H28B27327   0.614   0.836   3.775  0.7564 -1.1879  0.6681
   39PEO   O28C27328   0.526   0.650   3.763  0.3485 -0.1774  0.2553
   39PEO   H28D27329   0.529   0.550   3.586 -1.7926  0.6821  0.9301
   39PEO   H28E27330   0.489   0.452   3.739  2.3225 -1.7936  0.7355
   39PEO   C28F27331   0.553   0.528   3.691 -0.2562  0.4180  0.5504
   39PEO   C29027332   0.695   0.473   3.718  0.0584 -0.7232  0.2457
   39PEO   H29127333   0.727   0.397   3.645 -0.0528 -0.2953 -0.2455
   39PEO   H29227334   0.755   0.564   3.719 -4.4846  2.6524 -1.2726
   39PEO   O29327335   0.688   0.424   3.850 -0.4620  0.0596  0.2914
   39PEO   H29427336   0.862   0.458   3.958  2.2225 -1.2325  0.9842
   39PEO   H29527337   0.879   0.363   3.806  1.6882  0.7982  0.3908
   39PEO   C29627338   0.816   0.381   3.894  1.0578  0.1452  0.0936
   39PEO   C29727339   0.797   0.258   3.988  0.1767 -0.2223 -0.2519
   39PEO   H29827340   0.892   0.264   4.042  1.1127  0.2614 -1.8850
   39PEO   H29927341   0.718   0.261   4.064 -0.5052  0.6374 -0.9680
   39PEO   O29A27342   0.798   0.133   3.915  0.0257  0.4907  0.0725
   39PEO   H29B27343   0.739   0.046   4.088  2.1303  1.2908  0.5615
   39PEO   H29C27344   0.858  -0.052   3.994 -1.6469 -3.9333 -2.1246
   39PEO   C29D27345   0.771   0.015   3.987  1.0627  0.3278  0.4982
   39PEO   C29E27346   0.650  -0.060   3.908  0.6936  0.1586  0.4604
   39PEO   H29F27347   0.673  -0.056   3.800  1.0422 -1.0398  0.4716
   39PEO   H2A027348   0.640  -0.166   3.936  0.9067  0.2678  0.9579
   39PEO   O2A127349   0.523   0.001   3.934 -0.1123  0.4768 -0.3235
   39PEO   H2A227350   0.464  -0.000   3.739  3.3441 -2.7542  0.7176
   39PEO   H2A327351   0.333   0.029   3.858  0.5915  0.5369  1.2455
   39PEO   C2A427352   0.424  -0.029   3.837 -0.2961 -0.4962  0.0815
   39PEO   C2A527353   0.391  -0.182   3.817 -0.7457 -0.7015  0.2391
   39PEO   H2A627354   0.386  -0.233   3.914  1.4059 -0.4432  0.5467
   39PEO   H2A727355   0.291  -0.199   3.774 -1.3943 -0.9466  1.7739
   39PEO   O2A827356   0.495  -0.250   3.742  0.3003  0.6847 -0.1919
   39PEO   H2A927357   0.411  -0.433   3.663 -0.3612 -1.2665  1.3305
   39PEO   H2AA27358   0.477  -0.437   3.835 -0.2230  2.0426 -0.1130
   39PEO   C2AB27359   0.484  -0.393   3.735  0.6656  0.6965 -0.6756
   39PEO   C2AC27360   0.620  -0.445   3.682 -0.3878 -0.2622 -0.1729
   39PEO   H2AD27361   0.699  -0.401   3.744  0.1719 -0.3661 -0.8059
   39PEO   H2AE27362   0.602  -0.551   3.705 -1.3880  0.4272  2.6037
   39PEO   O2AF27363   0.635  -0.413   3.543 -0.1881  0.2263 -0.0411
   39PEO   H2B027364   0.803  -0.293   3.518 -0.3425 -0.3161 -0.5436
   39PEO   H2B127365   0.658  -0.208   3.586  0.3770 -0.6447  0.8079
   39PEO   C2B227366   0.694  -0.283   3.515 -0.3079  0.1240 -0.3785
   39PEO   C2B327367   0.657  -0.234   3.372  0.3589 -0.3730 -0.3712
   39PEO   H2B427368   0.550  -0.233   3.348  0.9442  2.7522 -3.9855
   39PEO   H2B527369   0.690  -0.128   3.371  3.3136 -1.1634  0.8695
   39PEO   O2B627370   0.729  -0.305   3.274  0.9083 -0.2237  0.3036
   39PEO   H2B727371   0.781  -0.147   3.143 -0.0075  0.5868 -1.0664
   39PEO   H2B827372   0.635  -0.239   3.103  0.8452  0.3476 -1.2123
   39PEO   C2B927373   0.736  -0.248   3.144  0.5530  0.3353 -0.4872
   39PEO   C2BA27374   0.841  -0.324   3.060 -0.1380 -0.0565  0.0487
   39PEO   H2BB27375   0.921  -0.262   3.015  0.0793 -1.2954 -1.3521
   39PEO   H2BC27376   0.892  -0.383   3.137  1.4812 -0.0417 -0.9606
   39PEO   O2BD27377   0.774  -0.408   2.963  0.3417 -0.3776  0.3040
   39PEO   H2BE27378   0.790  -0.503   2.977 -0.9486 -0.9531 -1.6780
   40PEO   H00127379   3.182   5.359   3.889 -0.3809  1.2864  1.3594
   40PEO   H00227380   3.326   5.426   3.969 -2.2406 -1.1872  2.7619
   40PEO   H00327381   3.345   5.330   3.819  0.8910 -1.9152  0.7144
   40PEO   C00427382   3.287   5.339   3.912 -0.3107 -0.3070 -0.1405
   40PEO   C00527383   3.301   5.205   3.992 -0.3014  0.9323  0.6535
   40PEO   H00627384   3.406   5.177   4.001 -0.4796 -0.6126 -1.3336
   40PEO   H00727385   3.259   5.220   4.093 -0.2229  1.0429  0.6695
   40PEO   O00827386   3.245   5.095   3.915 -0.3949  0.6625 -0.4668
   40PEO   H00927387   3.141   4.962   4.038  0.5647 -0.6407 -0.1471
   40PEO   H00A27388   3.324   4.945   4.029  1.2919 -0.3257 -1.2418
   40PEO   C00B27389   3.231   4.971   3.976  0.6509  0.1722  0.0869
   40PEO   C00C27390   3.210   4.867   3.865 -0.4097  0.1353 -0.0304
   40PEO   H00D27391   3.272   4.895   3.778 -1.7273 -1.0648 -1.4115
   40PEO   H00E27392   3.249   4.770   3.899  0.4556  0.5498  0.2113
   40PEO   O00F27393   3.071   4.861   3.830 -0.1836  0.7202  0.5169
   40PEO   H01027394   3.114   4.977   3.658  1.3356 -1.0891 -0.1066
   40PEO   H01127395   2.950   4.909   3.671 -0.8132 -2.3522  1.3779
   40PEO   C01227396   3.056   4.891   3.693 -0.2219  0.4265  1.1890
   40PEO   C01327397   3.093   4.773   3.607 -0.0923 -0.1376  0.1499
   40PEO   H01427398   3.054   4.679   3.648  2.5772 -1.2399  0.3494
   40PEO   H01527399   3.050   4.791   3.507 -2.3890 -1.4021  0.8493
   40PEO   O01627400   3.236   4.759   3.587 -0.2423 -0.0566  0.1387
   40PEO   H01727401   3.216   4.635   3.421  0.0379  0.9573  0.8166
   40PEO   H01827402   3.295   4.556   3.560 -3.3690  1.8555  3.5627
   40PEO   C01927403   3.288   4.650   3.503  0.6002  0.5261  0.4143
   40PEO   C01A27404   3.426   4.703   3.473 -0.1545  0.0239  0.6216
   40PEO   H01B27405   3.488   4.731   3.559  0.8185 -3.8557  1.4121
   40PEO   H01C27406   3.486   4.618   3.438 -0.2269  0.8797 -1.7012
   40PEO   O01D27407   3.423   4.795   3.363  0.8793 -0.0704 -0.0388
   40PEO   H01E27408   3.616   4.743   3.302  3.9668  2.0618  0.4351
   40PEO   H01F27409   3.603   4.879   3.422 -3.0990  0.9203  0.2506
   40PEO   C02027410   3.558   4.831   3.333 -0.4256 -0.1789 -0.6063
   40PEO   C02127411   3.562   4.921   3.212 -0.3815  0.1357  0.0640
   40PEO   H02227412   3.654   4.913   3.152 -0.4275 -0.9380  0.1213
   40PEO   H02327413   3.477   4.902   3.144 -0.3077  2.7920 -0.8820
   40PEO   O02427414   3.551   5.051   3.266 -0.7875  0.2194 -0.2382
   40PEO   H02527415   3.687   5.127   3.134  0.2036  0.9552 -0.4229
   40PEO   H02627416   3.594   5.244   3.235 -1.3337 -0.3967  0.5186
   40PEO   C02727417   3.587   5.156   3.170 -0.0738  0.3694 -0.7162
   40PEO   C02827418   3.469   5.172   3.067  0.4459  0.3833 -0.4580
   40PEO   H02927419   3.492   5.257   3.002  0.5644  0.3380 -0.4745
   40PEO   H02A27420   3.448   5.076   3.018  0.2448  0.6587 -0.9147
   40PEO   O02B27421   3.352   5.206   3.147  0.0603  0.3034  0.2591
   40PEO   H02C27422   3.200   5.132   3.031  2.3135 -0.6830 -0.6436
   40PEO   H02D27423   3.277   5.283   2.974  1.0474 -0.0517 -0.0260
   40PEO   C02E27424   3.241   5.228   3.063  0.5199 -0.0122 -0.2125
   40PEO   C02F27425   3.130   5.308   3.138  0.0960  0.1635 -0.1926
   40PEO   H03027426   3.037   5.304   3.079  1.4637  0.4886 -2.4908
   40PEO   H03127427   3.111   5.259   3.235 -0.0906  0.7998  0.0962
   40PEO   O03227428   3.177   5.448   3.144 -1.0649 -0.1112  0.1204
   40PEO   H03327429   3.157   5.645   3.194  0.9183  0.0033 -1.0020
   40PEO   H03427430   3.097   5.523   3.315 -1.4157  2.0930  0.9117
   40PEO   C03527431   3.099   5.553   3.209  0.4615  0.4821  0.4449
   40PEO   C03627432   2.945   5.552   3.160 -0.1045  0.8456  0.0819
   40PEO   H03727433   2.902   5.652   3.148 -0.8527  0.2858 -2.7279
   40PEO   H03827434   2.941   5.514   3.057  2.3559  1.0180 -0.1467
   40PEO   O03927435   2.881   5.459   3.247 -0.1133 -0.1470 -0.1216
   40PEO   H03A27436   2.772   5.379   3.094 -1.4116 -1.1532  0.0111
   40PEO   H03B27437   2.693   5.500   3.199 -1.1449  0.3339 -1.1697
   40PEO   C03C27438   2.760   5.413   3.198 -0.5597  0.7664 -0.4765
   40PEO   C03D27439   2.703   5.301   3.283 -0.6166  0.0445 -0.0370
   40PEO   H03E27440   2.656   5.324   3.379 -0.5544 -4.6763  1.3946
   40PEO   H03F27441   2.626   5.251   3.222 -0.1824 -0.3598 -0.2537
   40PEO   O04027442   2.812   5.210   3.306 -0.4157 -0.1600 -0.2363
   40PEO   H04127443   2.663   5.099   3.414 -0.6847 -4.0608 -0.2105
   40PEO   H04227444   2.828   5.047   3.430  0.0336  0.1013  0.2012
   40PEO   C04327445   2.756   5.087   3.357  0.2238  0.1601  0.0437
   40PEO   C04427446   2.710   4.988   3.253  0.0324 -0.3943  0.1469
   40PEO   H04527447   2.647   5.047   3.184  1.4523  0.3606 -0.5467
   40PEO   H04627448   2.799   4.970   3.191 -1.6073  3.7495 -3.9444
   40PEO   O04727449   2.646   4.873   3.312 -0.9714 -0.3188  0.4949
   40PEO   H04827450   2.647   4.820   3.126  0.0535  0.8399  0.1888
   40PEO   H04927451   2.488   4.866   3.190  2.0432  1.8040 -1.2578
   40PEO   C04A27452   2.580   4.810   3.213  0.2581 -0.7442  0.1852
   40PEO   C04B27453   2.550   4.664   3.247  0.1716 -0.1638 -0.1469
   40PEO   H04C27454   2.532   4.618   3.148  0.4795  0.5011 -0.5179
   40PEO   H04D27455   2.635   4.618   3.301  1.7303  1.6881 -0.8986
   40PEO   O04E27456   2.435   4.667   3.330 -0.0282  0.0982  0.4146
   40PEO   H04F27457   2.424   4.480   3.428  2.5029 -1.5880 -2.4274
   40PEO   H05027458   2.362   4.480   3.254  1.6630 -0.5230 -0.0777
   40PEO   C05127459   2.373   4.536   3.348  0.5466 -0.0432 -0.2160
   40PEO   C05227460   2.233   4.573   3.402  0.0649  0.1604  0.2241
   40PEO   H05327461   2.195   4.665   3.355 -2.9242 -0.9213  0.2802
   40PEO   H05427462   2.169   4.488   3.374 -0.2409  0.0482  1.2332
   40PEO   O05527463   2.242   4.594   3.539 -0.2483 -0.0786 -0.0415
   40PEO   H05627464   2.219   4.809   3.538  1.2891 -0.0334 -0.3294
   40PEO   H05727465   2.383   4.753   3.537  0.0080  1.2191  0.5111
   40PEO   C05827466   2.283   4.730   3.578  0.3967 -0.2882  0.6479
   40PEO   C05927467   2.280   4.746   3.736 -0.0862 -0.7938  0.3080
   40PEO   H05A27468   2.313   4.661   3.798 -3.0951 -1.5190  1.0885
   40PEO   H05B27469   2.334   4.838   3.760 -1.4943  0.4953 -1.2297
   40PEO   O05C27470   2.137   4.787   3.761 -0.1691  0.5398 -0.3803
   40PEO   H05D27471   2.059   4.903   3.909 -2.6839 -0.0668 -1.6614
   40PEO   H05E27472   2.182   4.785   3.961 -3.7658 -1.6486  3.4032
   40PEO   C05F27473   2.098   4.801   3.892 -0.4557  0.5494 -0.5780
   40PEO   C06027474   1.994   4.694   3.930 -0.5091 -0.3272  0.6903
   40PEO   H06127475   1.949   4.720   4.028 -1.5476  0.8174 -0.0603
   40PEO   H06227476   1.915   4.689   3.854 -0.9889  0.6830  1.0942
   40PEO   O06327477   2.079   4.579   3.948 -0.3015 -0.2131 -0.4768
   40PEO   H06427478   1.914   4.448   3.918  1.1004 -0.9224 -0.2727
   40PEO   H06527479   1.967   4.477   4.080 -1.0657 -1.5751  0.2045
   40PEO   C06627480   2.005   4.456   3.979  0.5465 -0.3242  0.5031
   40PEO   C06727481   2.094   4.335   3.961 -0.5985  0.1427  0.2004
   40PEO   H06827482   2.030   4.247   3.948 -0.4713 -0.1221  1.2754
   40PEO   H06927483   2.151   4.348   3.867 -0.2014 -1.6042  0.1612
   40PEO   O06A27484   2.189   4.313   4.061  0.2531  0.7135  0.0624
   40PEO   H06B27485   2.267   4.503   4.141 -1.5968 -0.7437  0.8093
   40PEO   H06C27486   2.349   4.443   3.992 -0.6664  3.9370  0.0225
   40PEO   C06D27487   2.295   4.413   4.083  0.0202  0.5396 -0.5276
   40PEO   C06E27488   2.405   4.351   4.168 -0.3216 -0.1225  0.0402
   40PEO   H06F27489   2.413   4.242   4.174  2.6695 -0.0783 -1.4265
   40PEO   H07027490   2.501   4.386   4.128 -1.4196  1.7119 -1.1758
   40PEO   O07127491   2.382   4.392   4.301  0.1482  0.0781  0.6102
   40PEO   H07227492   2.587   4.375   4.363  0.6919 -2.4273 -2.9997
   40PEO   H07327493   2.496   4.227   4.388 -1.7326  0.2788  1.4456
   40PEO   C07427494   2.487   4.336   4.389  0.3194  0.4925  0.8122
   40PEO   C07527495   2.468   4.393   4.529  0.4206 -0.0784  0.1054
   40PEO   H07627496   2.360   4.385   4.547  0.2928  1.4526  0.1716
   40PEO   H07727497   2.526   4.345   4.609 -0.0055 -1.0886 -0.1761
   40PEO   O07827498   2.494   4.529   4.530 -0.2496  0.2056 -0.0210
   40PEO   H07927499   2.539   4.538   4.737 -0.0843 -1.4848  1.3107
   40PEO   H07A27500   2.368   4.553   4.697 -1.2856  2.4190 -1.3030
   40PEO   C07B27501   2.469   4.583   4.665  0.6347 -0.8423  1.0025
   40PEO   C07C27502   2.483   4.743   4.671  0.2783 -0.1533  1.2321
   40PEO   H07D27503   2.429   4.780   4.583  1.9603 -0.5943 -0.0462
   40PEO   H07E27504   2.452   4.789   4.766  0.4580 -0.2392  1.3330
   40PEO   O07F27505   2.623   4.777   4.661  0.1671  0.5108 -0.6155
   40PEO   H08027506   2.810   4.821   4.748 -0.9084  0.8372  0.6970
   40PEO   H08127507   2.729   4.662   4.797 -0.0553 -0.1096  0.6839
   40PEO   C08227508   2.716   4.768   4.771 -0.5320 -0.4491 -0.5356
   40PEO   C08327509   2.663   4.843   4.896  0.1352 -0.1795 -0.6397
   40PEO   H08427510   2.749   4.896   4.938  0.3814  2.1863 -3.7797
   40PEO   H08527511   2.578   4.910   4.875 -1.7625 -2.8280 -2.0279
   40PEO   O08627512   2.603   4.742   4.980  0.8377  0.0105 -0.1143
   40PEO   H08727513   2.462   4.728   5.137 -0.6234  0.3649 -0.1919
   40PEO   H08827514   2.506   4.892   5.091 -0.4345 -0.0405 -0.3812
   40PEO   C08927515   2.546   4.790   5.104 -0.3639  0.0091 -0.2074
   40PEO   C08A27516   2.643   4.767   5.223  0.0948 -1.0857 -0.4426
   40PEO   H08B27517   2.593   4.793   5.318 -1.7698 -4.0220 -0.5109
   40PEO   H08C27518   2.670   4.662   5.239  0.0521 -0.9592  0.5447
   40PEO   O08D27519   2.769   4.834   5.188  0.7186  0.2348 -0.2485
   40PEO   H08E27520   2.760   4.973   5.349  0.1386  3.3676 -0.1246
   40PEO   H08F27521   2.723   5.042   5.189  0.5707  1.1036  1.6072
   40PEO   C09027522   2.777   4.961   5.241 -0.4322 -0.6607  0.0577
   40PEO   C09127523   2.917   5.009   5.231 -0.0840 -0.8121  0.2598
   40PEO   H09227524   2.918   5.102   5.290 -0.4068 -1.3525  1.1568
   40PEO   H09327525   2.988   4.938   5.276  2.0447  0.9354 -0.2015
   40PEO   O09427526   2.955   5.051   5.097 -0.1100 -0.1951  0.2295
   40PEO   H09527527   2.981   4.880   4.986  0.7846 -1.6839  1.4398
   40PEO   H09627528   3.106   4.916   5.111 -0.6130  1.0078  0.8834
   40PEO   C09727529   3.044   4.959   5.031  0.2196 -0.1002 -0.3878
   40PEO   C09827530   3.141   5.029   4.943  0.1439 -0.2074  0.5114
   40PEO   H09927531   3.197   5.111   4.991  0.0639 -0.8303  1.7230
   40PEO   H09A27532   3.221   4.960   4.914  1.3236  0.9545  0.8745
   40PEO   O09B27533   3.068   5.080   4.828  0.3721  0.0848  0.3762
   40PEO   H09C27534   3.204   5.052   4.672  1.4943  0.8362 -0.8827
   40PEO   H09D27535   3.219   5.202   4.773 -0.7077  1.5971 -0.9208
   40PEO   C09E27536   3.150   5.136   4.719  0.4296 -0.1161 -0.3606
   40PEO   C09F27537   3.064   5.204   4.615  0.1493 -0.0216  0.5933
   40PEO   H0A027538   2.971   5.236   4.665 -0.4350 -2.9272  1.5679
   40PEO   H0A127539   3.126   5.281   4.567  1.5151 -0.6882  1.2464
   40PEO   O0A227540   3.031   5.103   4.516 -0.0574 -0.0577  0.0623
   40PEO   H0A327541   2.840   5.031   4.593 -0.9772 -2.8280  0.2999
   40PEO   H0A427542   2.991   4.954   4.645  3.3468  2.0902 -1.1127
   40PEO   C0A527543   2.939   4.998   4.558 -0.2105 -0.1392 -0.3123
   40PEO   C0A627544   2.912   4.901   4.438  0.8970 -0.2036 -0.6247
   40PEO   H0A727545   2.857   4.820   4.487  1.9803 -1.0194 -0.6944
   40PEO   H0A827546   2.845   4.956   4.372  0.0774  0.0165  0.3766
   40PEO   O0A927547   3.027   4.854   4.363  0.9629 -0.9378 -0.5628
   40PEO   H0AA27548   2.943   4.798   4.175  4.6763  0.7633 -2.3096
   40PEO   H0AB27549   2.941   4.679   4.306  0.0896 -0.4427 -2.1213
   40PEO   C0AC27550   2.999   4.761   4.262  1.0824  0.0313 -0.0633
   40PEO   C0AD27551   3.133   4.720   4.210  0.0511 -0.8594  0.0283
   40PEO   H0AE27552   3.121   4.678   4.109 -0.3057 -0.8379  0.0586
   40PEO   H0AF27553   3.195   4.810   4.197 -3.0384  1.4030 -0.1436
   40PEO   O0B027554   3.188   4.613   4.294 -0.5167 -0.5271  0.7366
   40PEO   H0B127555   3.393   4.618   4.277  1.4829  1.3481 -4.6427
   40PEO   H0B227556   3.319   4.528   4.140  0.9064  2.2646 -0.0594
   40PEO   C0B327557   3.309   4.554   4.247 -0.3949  1.1315  0.1213
   40PEO   C0B427558   3.309   4.420   4.338  0.6282  0.2812  0.6059
   40PEO   H0B527559   3.216   4.366   4.315  0.7875 -1.0008  2.6891
   40PEO   H0B627560   3.400   4.360   4.325  0.5777  0.0611  1.2430
   40PEO   O0B727561   3.307   4.454   4.474 -0.3464  0.3085  0.1859
   40PEO   H0B827562   3.152   4.339   4.539 -0.3233  0.9682 -0.0415
   40PEO   H0B927563   3.260   4.380   4.663  0.6401  3.9724 -0.5828
   40PEO   C0BA27564   3.259   4.351   4.557 -0.3046  0.4145  0.2584
   40PEO   C0BB27565   3.353   4.222   4.547 -0.3223 -0.0538 -0.3741
   40PEO   H0BC27566   3.455   4.264   4.542 -1.7524  3.9482  0.5120
   40PEO   H0BD27567   3.353   4.169   4.643 -1.5805  0.5858  0.0042
   40PEO   O0BE27568   3.313   4.138   4.439  0.3435  0.4899  0.1751
   40PEO   H0BF27569   3.365   3.953   4.538  3.2385 -1.1473  0.3472
   40PEO   H0C027570   3.473   4.006   4.410  0.9551 -0.5171  0.4986
   40PEO   C0C127571   3.368   4.004   4.441  0.9288 -0.8383  0.3873
   40PEO   C0C227572   3.272   3.937   4.338  0.3871 -0.7982  0.2780
   40PEO   H0C327573   3.249   4.003   4.254 -1.1255 -1.6076  0.0177
   40PEO   H0C427574   3.329   3.851   4.301  2.1864 -0.0588  1.2188
   40PEO   O0C527575   3.150   3.880   4.407 -0.5000  0.4407 -0.8609
   40PEO   H0C627576   2.973   3.959   4.344  2.5067  2.0813 -1.9708
   40PEO   H0C727577   3.065   4.064   4.469 -0.8112 -0.7431  1.4866
   40PEO   C0C827578   3.038   3.964   4.432 -0.2033 -0.5266  0.4249
   40PEO   C0C927579   2.959   3.890   4.543 -0.0097 -0.1223  0.3589
   40PEO   H0CA27580   3.028   3.861   4.624 -0.4683 -1.0468  0.4334
   40PEO   H0CB27581   2.884   3.956   4.588  0.0707 -0.8547  1.6104
   40PEO   O0CC27582   2.889   3.778   4.483  0.5665 -0.6975 -0.0780
   40PEO   H0CD27583   2.793   3.746   4.664 -1.6923 -0.1451 -1.5795
   40PEO   H0CE27584   2.919   3.633   4.635 -0.7754 -0.2670  1.9071
   40PEO   C0CF27585   2.842   3.691   4.582  0.4025 -0.4776 -0.1574
   40PEO   C0D027586   2.743   3.591   4.516  0.3604  0.5497  0.6439
   40PEO   H0D127587   2.797   3.553   4.428  2.1185  0.7547  1.5805
   40PEO   H0D227588   2.730   3.500   4.575  3.7792 -0.9388 -0.5908
   40PEO   O0D327589   2.615   3.646   4.477 -0.1239  0.0954  0.0418
   40PEO   H0D427590   2.496   3.471   4.515 -2.7462 -0.8754 -0.8609
   40PEO   H0D527591   2.571   3.489   4.351 -0.8872 -2.1291  0.5893
   40PEO   C0D627592   2.525   3.542   4.436  0.4091 -0.6112  0.3884
   40PEO   C0D727593   2.390   3.605   4.389 -0.1129 -0.0089 -0.6667
   40PEO   H0D827594   2.411   3.682   4.313 -0.0840 -0.9168 -1.6165
   40PEO   H0D927595   2.325   3.528   4.344  1.4466 -1.0613 -1.2277
   40PEO   O0DA27596   2.330   3.662   4.508  0.6228 -0.2640 -0.3189
   40PEO   H0DB27597   2.137   3.721   4.581 -0.6096  3.0239 -0.0951
   40PEO   H0DC27598   2.142   3.658   4.419  0.8642 -0.9540 -0.2311
   40PEO   C0DD27599   2.198   3.720   4.490 -0.3057 -0.1785  0.0429
   40PEO   C0DE27600   2.205   3.859   4.442 -0.2087 -0.1377  0.0044
   40PEO   H0DF27601   2.102   3.899   4.436 -0.6475 -1.0873  0.9335
   40PEO   H0E027602   2.263   3.915   4.517 -0.1535 -0.1990  0.0074
   40PEO   O0E127603   2.256   3.867   4.310  0.3013 -0.4391  0.3952
   40PEO   H0E227604   2.331   4.064   4.303 -0.6979  0.6348 -0.8133
   40PEO   H0E327605   2.156   4.041   4.246 -0.3063  1.4009 -0.5325
   40PEO   C0E427606   2.258   3.999   4.254 -0.8179  0.2173 -0.0971
   40PEO   C0E527607   2.322   3.980   4.113  0.1842  0.0456 -0.7550
   40PEO   H0E627608   2.291   3.888   4.062  0.8621 -0.0908 -0.9310
   40PEO   H0E727609   2.282   4.063   4.053 -0.8614  0.7459  0.8375
   40PEO   O0E827610   2.465   4.014   4.131 -0.1715  0.4788 -0.3697
   40PEO   H0E927611   2.575   3.855   4.049  1.0185  1.1986 -0.4336
   40PEO   H0EA27612   2.501   3.825   4.216  1.5440  1.2592  1.7467
   40PEO   C0EB27613   2.550   3.896   4.148  0.3928  0.2722 -0.1892
   40PEO   C0EC27614   2.683   3.940   4.211 -0.5951 -0.3763  0.7743
   40PEO   H0ED27615   2.673   4.003   4.301  0.5575 -0.4627  0.9780
   40PEO   H0EE27616   2.733   3.847   4.243 -0.8152 -0.5219  0.6954
   40PEO   O0EF27617   2.765   4.000   4.117  0.2966 -0.3161 -0.2766
   40PEO   H0F027618   2.737   4.201   4.184  0.0692 -2.9219  2.2754
   40PEO   H0F127619   2.646   4.161   4.040 -0.4358  2.4038  1.2875
   40PEO   C0F227620   2.740   4.140   4.092  0.0030  0.4709 -0.1674
   40PEO   C0F327621   2.848   4.202   4.000 -0.0367  0.4020 -0.3244
   40PEO   H0F427622   2.876   4.112   3.943  0.7714 -0.5458  1.4565
   40PEO   H0F527623   2.799   4.274   3.933  0.0435  1.2593  0.5161
   40PEO   O0F627624   2.965   4.246   4.067  0.0421  0.0991 -0.1889
   40PEO   H0F727625   3.097   4.133   3.945 -2.3251 -0.4254 -0.7867
   40PEO   H0F827626   3.170   4.251   4.058  0.0794  0.3114 -0.2906
   40PEO   C0F927627   3.086   4.233   3.989 -0.4002 -0.7341  0.5211
   40PEO   C0FA27628   3.088   4.343   3.887  0.1838  0.1002 -0.8708
   40PEO   H0FB27629   3.043   4.429   3.940  2.2787  0.3035  0.6903
   40PEO   H0FC27630   3.191   4.373   3.862  1.0537 -0.5896  1.5765
   40PEO   O0FD27631   3.016   4.301   3.768  0.6293  0.0126 -0.0622
   40PEO   H0FE27632   3.095   4.394   3.603  1.0911 -1.4103  1.9571
   40PEO   H0FF27633   2.982   4.486   3.709 -1.1283 -1.5660  2.0146
   40PEO   C10027634   3.001   4.389   3.659 -0.5092 -0.2720 -0.4488
   40PEO   C10127635   2.891   4.351   3.568  0.4680  0.9129  0.3316
   40PEO   H10227636   2.879   4.434   3.496  0.3253  1.0348  0.4941
   40PEO   H10327637   2.915   4.264   3.505  2.3512  2.0512 -0.6071
   40PEO   O10427638   2.769   4.340   3.643 -0.0900 -0.1841 -0.0161
   40PEO   H10527639   2.653   4.309   3.480  1.4913  1.4054 -0.6592
   40PEO   H10627640   2.648   4.472   3.547  1.2156  0.4512  0.9413
   40PEO   C10727641   2.648   4.365   3.574  0.5353  0.2058  0.0333
   40PEO   C10827642   2.536   4.312   3.662  1.0453  0.0237  0.2008
   40PEO   H10927643   2.527   4.381   3.747  0.2226  1.1104 -0.7391
   40PEO   H10A27644   2.441   4.306   3.606  0.7723 -0.9726  0.7372
   40PEO   O10B27645   2.561   4.173   3.701 -0.2836  0.7700  0.3533
   40PEO   H10C27646   2.373   4.161   3.798 -0.0665  0.6925  0.5146
   40PEO   H10D27647   2.511   4.158   3.901  0.0223 -0.4934 -0.1491
   40PEO   C10E27648   2.476   4.124   3.803 -0.3747 -0.2934 -0.0817
   40PEO   C10F27649   2.483   3.967   3.802  0.0688 -0.9092  0.9050
   40PEO   H11027650   2.587   3.932   3.803  0.2175 -0.7163 -1.5984
   40PEO   H11127651   2.430   3.936   3.893  0.5515 -0.0842  1.4814
   40PEO   O11227652   2.411   3.928   3.687  0.7791  0.4988  1.0061
   40PEO   H11327653   2.328   3.741   3.758  0.8528 -1.5685  0.2406
   40PEO   H11427654   2.487   3.734   3.685 -1.9211 -1.5555 -1.5210
   40PEO   C11527655   2.391   3.787   3.681 -0.6174  1.2362  0.5881
   40PEO   C11627656   2.334   3.762   3.540  0.0072  0.0183  0.2649
   40PEO   H11727657   2.397   3.808   3.463  2.7261 -1.6727  1.3327
   40PEO   H11827658   2.332   3.653   3.523  0.3337 -0.1492  1.2604
   40PEO   O11927659   2.192   3.802   3.524 -0.2575 -0.1548 -0.0500
   40PEO   H11A27660   2.146   3.817   3.714  2.2359 -0.7346 -1.7810
   40PEO   H11B27661   2.069   3.671   3.641 -0.1917 -0.2671  1.4260
   40PEO   C11C27662   2.096   3.777   3.625 -0.2669 -0.5180 -0.5560
   40PEO   C11D27663   1.964   3.848   3.591 -0.1208  0.2973  0.1950
   40PEO   H11E27664   1.923   3.797   3.503 -0.3253  0.6020  0.1123
   40PEO   H11F27665   1.892   3.842   3.674  0.3262  0.2054  0.5794
   40PEO   O12027666   2.003   3.981   3.562  0.4138  0.6405 -0.0665
   40PEO   H12127667   1.829   4.073   3.545 -1.0424 -2.4215 -0.7821
   40PEO   H12227668   1.876   3.993   3.401 -3.3065  1.2642  1.1994
   40PEO   C12327669   1.918   4.053   3.483  0.3568  0.4145  0.1227
   40PEO   C12427670   1.984   4.178   3.438 -0.5829 -0.1402 -0.1842
   40PEO   H12527671   1.920   4.232   3.368 -0.8201  0.4598  0.4850
   40PEO   H12627672   1.996   4.241   3.527 -0.2161 -0.1157 -0.2495
   40PEO   O12727673   2.113   4.145   3.375  0.2835  0.2162 -0.3669
   40PEO   H12827674   2.217   4.082   3.559 -1.0367 -1.5709 -0.8012
   40PEO   H12927675   2.259   4.244   3.498 -1.7158 -0.7383  1.3064
   40PEO   C12A27676   2.232   4.142   3.468 -0.1531 -0.7626 -0.1493
   40PEO   C12B27677   2.355   4.102   3.387  0.6047  0.6602  0.0441
   40PEO   H12C27678   2.430   4.046   3.446  0.0836 -1.5196 -1.2644
   40PEO   H12D27679   2.324   4.026   3.313  0.6295 -0.2485  0.9381
   40PEO   O12E27680   2.414   4.219   3.326  0.3948  0.3531  0.3155
   40PEO   H12F27681   2.400   4.153   3.126 -1.5263 -2.0147  2.9804
   40PEO   H13027682   2.545   4.099   3.214 -1.3982 -3.0235 -1.1038
   40PEO   C13127683   2.481   4.186   3.194  0.8841 -0.9889 -0.1178
   40PEO   C13227684   2.557   4.308   3.130  0.0554  0.6022  0.0470
   40PEO   H13327685   2.582   4.268   3.030  1.1411 -1.1534  0.9602
   40PEO   H13427686   2.478   4.383   3.116 -2.9271 -2.3430 -0.1524
   40PEO   O13527687   2.669   4.350   3.212 -0.1917 -0.4991  0.3170
   40PEO   H13627688   2.765   4.184   3.310 -3.0051 -0.0803 -0.1525
   40PEO   H13727689   2.859   4.330   3.266 -1.2417  1.5024 -0.8171
   40PEO   C13827690   2.780   4.262   3.233 -0.0651 -0.3676  0.0183
   40PEO   C13927691   2.846   4.195   3.106  0.3286 -0.1650 -0.4662
   40PEO   H13A27692   2.854   4.269   3.025  0.0545 -0.8389 -1.1257
   40PEO   H13B27693   2.950   4.172   3.133  0.9447  3.2213  0.3862
   40PEO   O13C27694   2.763   4.084   3.057 -0.1245 -0.3860 -0.2975
   40PEO   H13D27695   2.748   4.146   2.863 -2.1366 -2.0785 -2.8943
   40PEO   H13E27696   2.699   3.984   2.880 -0.0326 -1.3227  1.6464
   40PEO   C13F27697   2.778   4.053   2.913 -0.1635 -0.1842 -0.2762
   40PEO   C14027698   2.926   4.021   2.876 -0.3138 -0.7428  0.4510
   40PEO   H14127699   2.968   3.961   2.958  0.2360 -0.0444  0.6828
   40PEO   H14227700   2.919   3.959   2.784  0.1699 -0.8527  0.4844
   40PEO   O14327701   3.009   4.140   2.854  0.3165  0.0379 -0.7846
   40PEO   H14427702   2.871   4.223   2.730 -0.0234 -0.2539  0.2086
   40PEO   H14527703   3.006   4.166   2.641  0.1124 -0.4259  0.4467
   40PEO   C14627704   2.981   4.214   2.737 -0.0460 -0.3971  0.3908
   40PEO   C14727705   3.039   4.354   2.733 -0.3757 -0.5722  0.1957
   40PEO   H14827706   3.124   4.356   2.802 -0.8365  2.1224  0.8025
   40PEO   H14927707   3.058   4.388   2.630 -0.6815  1.2858  0.7130
   40PEO   O14A27708   2.931   4.436   2.790  0.2360  0.3447 -0.3175
   40PEO   H14B27709   2.999   4.625   2.725  3.2510 -0.0932  1.6468
   40PEO   H14C27710   3.048   4.582   2.895  0.5086 -2.4461 -0.2689
   40PEO   C14D27711   2.967   4.581   2.820 -0.4636  0.0630  0.6289
   40PEO   C14E27712   2.847   4.651   2.885  0.0217  0.5287  0.0416
   40PEO   H14F27713   2.776   4.573   2.917  0.1989 -0.0128 -0.8340
   40PEO   H15027714   2.866   4.716   2.971 -1.2250  1.0462 -0.0541
   40PEO   O15127715   2.774   4.728   2.786  0.6274  0.0599 -0.0440
   40PEO   H15227716   2.938   4.839   2.755  0.0175 -1.4033  3.3403
   40PEO   H15327717   2.806   4.940   2.795  4.2396  1.9409 -1.5032
   40PEO   C15427718   2.830   4.849   2.738  0.4675 -0.5469  0.4312
   40PEO   C15527719   2.798   4.851   2.592 -0.2538 -0.8619 -0.5595
   40PEO   H15627720   2.872   4.911   2.537  0.7915 -0.7608  0.8867
   40PEO   H15727721   2.791   4.750   2.550 -0.2292 -0.4400 -1.6221
   40PEO   O15827722   2.671   4.925   2.585 -0.0814 -0.1464 -0.0744
   40PEO   H15927723   2.708   5.063   2.428  0.8835  1.3414 -0.3226
   40PEO   H15A27724   2.762   5.111   2.586  0.8850 -0.2066 -3.1553
   40PEO   C15B27725   2.682   5.056   2.535 -0.2017 -1.0363 -0.6923
   40PEO   C15C27726   2.551   5.136   2.563 -0.5567  0.5120  0.3638
   40PEO   H15D27727   2.518   5.136   2.668 -0.8857  0.7874  0.2616
   40PEO   H15E27728   2.559   5.240   2.529  0.1968 -0.3394 -2.3150
   40PEO   O15F27729   2.452   5.068   2.489  0.8057 -0.6846 -0.1843
   40PEO   H16027730   2.347   5.241   2.459  1.0690 -0.6108 -0.8258
   40PEO   H16127731   2.268   5.131   2.579 -1.3898  2.3825  0.1531
   40PEO   C16227732   2.324   5.137   2.485 -0.5074  0.0094  0.4594
   40PEO   C16327733   2.235   5.068   2.379 -0.0619  0.4919  0.3022
   40PEO   H16427734   2.258   4.962   2.366  0.9690  0.8872 -1.6099
   40PEO   H16527735   2.131   5.050   2.407  0.0888 -3.6014 -1.1233
   40PEO   O16627736   2.253   5.132   2.254  1.3306 -0.4153 -0.7565
   40PEO   H16727737   2.121   5.001   2.167 -2.3804  1.8010 -1.6864
   40PEO   H16827738   2.286   4.980   2.115 -0.0723 -0.3616  0.1266
   40PEO   C16927739   2.211   5.057   2.138  0.0798 -0.4635  0.9987
   40PEO   C16A27740   2.187   5.161   2.028 -0.2827 -0.5924 -0.0623
   40PEO   H16B27741   2.276   5.223   2.011 -0.5731  0.1003  0.9130
   40PEO   H16C27742   2.167   5.110   1.932  2.1074 -1.0448 -0.3905
   40PEO   O16D27743   2.075   5.252   2.064 -0.2015 -0.1768 -0.7124
   40PEO   H16E27744   2.020   5.297   1.875 -1.5352  0.5054 -0.9763
   40PEO   H16F27745   2.114   5.425   1.962  0.2741  0.0794  3.8879
   40PEO   C17027746   2.034   5.349   1.970 -0.2208 -0.2313 -0.7470
   40PEO   C17127747   1.899   5.416   2.013  0.5244 -0.0643 -0.5426
   40PEO   H17227748   1.894   5.446   2.118  0.7259  2.9683 -1.3258
   40PEO   H17327749   1.886   5.497   1.940 -0.7202 -1.1726 -1.6208
   40PEO   O17427750   1.796   5.319   1.987  0.1437  0.0192 -0.2082
   40PEO   H17527751   1.675   5.351   2.154  1.4916 -1.1503 -0.6014
   40PEO   H17627752   1.599   5.276   2.011  2.5011 -1.3926 -2.8321
   40PEO   C17727753   1.670   5.353   2.044 -0.0313  0.1502 -0.5460
   40PEO   C17827754   1.622   5.491   1.982 -1.0268  0.5212  0.0387
   40PEO   H17927755   1.523   5.515   2.025 -0.5063 -2.1562  3.0785
   40PEO   H17A27756   1.694   5.573   1.989 -0.6086  0.1656 -0.0285
   40PEO   O17B27757   1.606   5.469   1.840 -0.2069  0.1946 -0.3322
   40PEO   H17C27758   1.545   5.669   1.848  0.1139  0.2134  0.5944
   40PEO   H17D27759   1.471   5.574   1.708 -0.3562 -2.9652  1.3173
   40PEO   C17E27760   1.560   5.593   1.770 -0.2765  0.3174  0.4158
   40PEO   C17F27761   1.675   5.641   1.679 -0.8106 -0.3183 -0.5039
   40PEO   H18027762   1.736   5.560   1.638 -2.3227 -0.8100 -1.9088
   40PEO   H18127763   1.645   5.701   1.592  2.2275  0.2137 -1.2769
   40PEO   O18227764   1.769   5.716   1.757  0.0544  0.0375  0.6891
   40PEO   H18327765   1.844   5.804   1.589  1.6697 -4.0567 -2.8124
   40PEO   H18427766   1.945   5.665   1.662  0.0560 -1.1726  0.7628
   40PEO   C18527767   1.880   5.752   1.679  0.6005 -0.5608 -0.1628
   40PEO   C18627768   1.964   5.839   1.772 -0.0127  0.4583 -0.5352
   40PEO   H18727769   2.036   5.898   1.713  1.4269  0.5079  1.2032
   40PEO   H18827770   1.895   5.908   1.822 -0.6009 -0.4897  0.0009
   40PEO   O18927771   2.032   5.748   1.863  0.1457 -0.2762 -0.4616
   40PEO   H18A27772   2.023   5.862   2.041 -0.2086  1.4983 -0.0091
   40PEO   H18B27773   2.171   5.891   1.930  0.1912  0.1379  0.7941
   40PEO   C18C27774   2.103   5.820   1.978 -0.4479  0.4487  0.3650
   40PEO   C18D27775   2.191   5.723   2.064 -0.4398 -0.5011  0.1891
   40PEO   H18E27776   2.245   5.656   1.995  0.5861 -0.7833  1.2263
   40PEO   H18F27777   2.254   5.794   2.120 -2.4918  0.2274  1.6909
   40PEO   O19027778   2.101   5.646   2.140 -0.8888 -0.0242 -0.1918
   40PEO   H19127779   2.205   5.684   2.327  0.5119  0.4716 -0.5426
   40PEO   H19227780   2.285   5.575   2.225  0.8588  2.1451  0.4745
   40PEO   C19327781   2.183   5.603   2.255  0.0879  0.5003 -0.4488
   40PEO   C19427782   2.130   5.479   2.337  0.3962  0.8307 -0.1497
   40PEO   H19527783   2.095   5.402   2.267  3.7492 -2.5610  1.5426
   40PEO   H19627784   2.220   5.430   2.378  0.6557 -0.9631 -2.6497
   40PEO   O19727785   2.030   5.517   2.436  0.2236 -0.1137 -0.2505
   40PEO   H19827786   1.852   5.492   2.340  0.5629  0.3894 -1.8493
   40PEO   H19927787   1.914   5.652   2.322  0.6804  0.6352  1.2371
   40PEO   C19A27788   1.902   5.572   2.397 -0.9985 -0.0529  0.2955
   40PEO   C19B27789   1.818   5.616   2.512  0.1755 -0.1270  0.5680
   40PEO   H19C27790   1.886   5.662   2.586 -0.0721  2.7981 -0.8575
   40PEO   H19D27791   1.756   5.693   2.465 -1.9904 -2.4526 -0.6132
   40PEO   O19E27792   1.746   5.512   2.567  0.1434 -0.0043 -0.7245
   40PEO   H19F27793   1.609   5.634   2.635  0.6228  1.6941  3.0549
   40PEO   H1A027794   1.711   5.577   2.759 -1.7616  0.8250  0.8750
   40PEO   C1A127795   1.653   5.540   2.672  0.2524  0.0633 -0.2143
   40PEO   C1A227796   1.556   5.425   2.704  0.6156  0.4793 -0.0799
   40PEO   H1A327797   1.614   5.338   2.736  0.2941 -0.4685 -1.9322
   40PEO   H1A427798   1.489   5.446   2.789 -0.7585 -0.7798 -0.8144
   40PEO   O1A527799   1.487   5.398   2.586  0.0007  0.0326 -0.1671
   40PEO   H1A627800   1.508   5.196   2.573  0.2816  1.8084  2.2470
   40PEO   H1A727801   1.635   5.282   2.491 -0.3795  0.9536 -0.8061
   40PEO   C1A827802   1.527   5.285   2.512 -0.2842  0.3555 -0.1822
   40PEO   C1A927803   1.437   5.273   2.385 -0.5672 -0.0003 -0.1564
   40PEO   H1AA27804   1.462   5.181   2.332  1.7078  0.7846 -0.5768
   40PEO   H1AB27805   1.330   5.267   2.411 -0.7844  0.3548 -0.9258
   40PEO   O1AC27806   1.460   5.382   2.293  0.1298 -0.1499 -0.0864
   40PEO   H1AD27807   1.261   5.366   2.241  0.5963 -0.0178 -0.2620
   40PEO   H1AE27808   1.344   5.493   2.153  1.8513  0.5401  0.5512
   40PEO   C1AF27809   1.341   5.441   2.250  0.4200  0.1042  0.3014
   40PEO   C1B027810   1.299   5.550   2.354 -0.3112  0.4730  0.8355
   40PEO   H1B127811   1.191   5.567   2.345 -0.1274  2.0540  1.2770
   40PEO   H1B227812   1.319   5.527   2.459 -0.5040  0.3686  0.8485
   40PEO   O1B327813   1.351   5.668   2.313  0.3878 -0.4406 -0.2488
   40PEO   H1B427814   1.548   5.616   2.347  1.5137  0.5983  1.0537
   40PEO   H1B527815   1.451   5.691   2.486 -1.6529  0.1222 -0.8642
   40PEO   C1B627816   1.474   5.691   2.378  0.5825  0.3366 -0.4272
   40PEO   C1B727817   1.526   5.817   2.305 -0.1260 -0.0919 -0.5552
   40PEO   H1B827818   1.452   5.896   2.283 -0.4735 -0.0511  0.6852
   40PEO   H1B927819   1.606   5.866   2.363  0.5705 -1.0170 -0.7192
   40PEO   O1BA27820   1.583   5.767   2.178 -0.6428  0.0149 -0.2650
   40PEO   H1BB27821   1.563   5.941   2.058  0.3389  0.9457  0.2392
   40PEO   H1BC27822   1.670   5.809   1.995 -0.0139 -1.6346  1.0225
   40PEO   C1BD27823   1.640   5.867   2.083 -0.2334  0.1989 -0.1853
   40PEO   C1BE27824   1.764   5.931   2.145 -0.2572  0.9679  0.1596
   40PEO   H1BF27825   1.838   5.862   2.190 -1.2269  0.6173  1.2581
   40PEO   H1C027826   1.816   5.968   2.055 -0.1412 -0.4556 -0.3856
   40PEO   O1C127827   1.734   6.048   2.225  0.2204  0.1675  0.1296
   40PEO   H1C227828   1.943   6.074   2.217  1.4359  2.9323  0.8349
   40PEO   H1C327829   1.855   6.074   2.373 -0.5136 -0.6529  0.7661
   40PEO   C1C427830   1.852   6.108   2.268 -0.4467 -1.1234  0.6040
   40PEO   C1C527831   1.835   6.255   2.245  0.0739 -0.4276 -0.1356
   40PEO   H1C627832   1.734   6.289   2.271  0.3986 -0.2224  0.8709
   40PEO   H1C727833   1.909   6.312   2.303 -0.3920  1.2202 -1.0622
   40PEO   O1C827834   1.856   6.277   2.106 -0.5404 -0.3403  0.1009
   40PEO   H1C927835   1.904   6.477   2.118 -1.0986  1.4203 -0.3610
   40PEO   H1CA27836   1.737   6.452   2.084 -0.4492  0.4897 -1.6478
   40PEO   C1CB27837   1.837   6.416   2.056 -0.1649 -0.3219  0.2978
   40PEO   C1CC27838   1.861   6.440   1.911 -1.0614  0.5873 -0.0310
   40PEO   H1CD27839   1.850   6.548   1.896 -4.3394  0.0037 -3.4475
   40PEO   H1CE27840   1.963   6.406   1.891 -2.1669 -1.2993 -3.3257
   40PEO   O1CF27841   1.772   6.348   1.836  0.2540 -0.8355 -0.4604
   40PEO   H1D027842   1.687   6.507   1.715 -2.8008 -1.8654 -3.2151
   40PEO   H1D127843   1.592   6.456   1.850 -0.1869 -0.3269  0.5955
   40PEO   C1D227844   1.663   6.418   1.775 -0.1949 -0.2626  0.5548
   40PEO   C1D327845   1.587   6.322   1.684  0.2391  0.2883  0.5435
   40PEO   H1D427846   1.550   6.236   1.742  0.8415 -3.5816 -4.1983
   40PEO   H1D527847   1.498   6.364   1.636  1.3357  1.2732 -0.6975
   40PEO   O1D627848   1.679   6.293   1.571  0.4065  0.0623 -1.0474
   40PEO   H1D727849   1.528   6.253   1.444  0.4820  0.5180  0.2013
   40PEO   H1D827850   1.595   6.104   1.522  0.3902  0.2030  2.1855
   40PEO   C1D927851   1.619   6.203   1.479 -0.0830 -0.4094  0.3988
   40PEO   C1DA27852   1.703   6.176   1.362  0.3709 -0.1315  0.0530
   40PEO   H1DB27853   1.639   6.155   1.275 -0.4701 -1.5604  0.9666
   40PEO   H1DC27854   1.764   6.266   1.344  0.3524  0.2082  1.5500
   40PEO   O1DD27855   1.780   6.059   1.381  0.0953 -0.1515 -0.3896
   40PEO   H1DE27856   1.954   6.122   1.277  0.9868 -1.1682  0.8580
   40PEO   H1DF27857   1.828   6.071   1.182 -0.2750  1.6904  0.2146
   40PEO   C1E027858   1.876   6.045   1.277 -0.2500  0.0281 -0.2276
   40PEO   C1E127859   1.948   5.907   1.281 -0.3293 -1.1047 -0.0358
   40PEO   H1E227860   2.050   5.910   1.238 -0.8840 -1.4586 -1.4593
   40PEO   H1E327861   1.956   5.872   1.384  1.3213 -5.5628 -1.4354
   40PEO   O1E427862   1.873   5.821   1.205  0.2074  0.2938 -0.9103
   40PEO   H1E527863   1.683   5.849   1.281 -1.0929 -0.5643  0.9074
   40PEO   H1E627864   1.787   5.742   1.370 -1.5644  2.3044  0.4238
   40PEO   C1E727865   1.763   5.775   1.268 -0.1817  0.6212 -0.5021
   40PEO   C1E827866   1.704   5.648   1.189 -0.7427  0.2012  0.0266
   40PEO   H1E927867   1.595   5.643   1.196 -0.8307  0.0651 -1.3186
   40PEO   H1EA27868   1.715   5.660   1.081 -0.0077  0.0157  0.0761
   40PEO   O1EB27869   1.768   5.531   1.240 -0.2641 -0.5022 -0.0492
   40PEO   H1EC27870   1.688   5.406   1.095 -2.1398  2.2837  2.6064
   40PEO   H1ED27871   1.809   5.323   1.210  0.7885 -0.8629 -1.6217
   40PEO   C1EE27872   1.779   5.414   1.156  0.0165 -0.1271 -0.0200
   40PEO   C1EF27873   1.905   5.436   1.067  0.1822 -0.0053  0.9896
   40PEO   H1F027874   1.976   5.484   1.136  0.0594 -0.4698  1.4437
   40PEO   H1F127875   1.953   5.349   1.019 -3.9494  0.1025 -4.2306
   40PEO   O1F227876   1.882   5.526   0.955  0.2527 -0.3816 -0.7429
   40PEO   H1F327877   1.945   5.578   0.755  1.7393 -0.0885 -0.2333
   40PEO   H1F427878   1.981   5.418   0.825  2.9038 -0.7843  2.7667
   40PEO   C1F527879   1.978   5.526   0.846 -0.0259 -0.2467  0.3426
   40PEO   C1F627880   2.112   5.575   0.898  0.1880 -0.0160  0.3458
   40PEO   H1F727881   2.133   5.533   0.998  0.3498  0.0907  0.3577
   40PEO   H1F827882   2.188   5.533   0.831 -2.2255 -2.0114 -1.3101
   40PEO   O1F927883   2.110   5.716   0.935 -0.0542 -0.0969 -0.4892
   40PEO   H1FA27884   2.310   5.722   0.912 -1.3542  0.0126 -1.5035
   40PEO   H1FB27885   2.262   5.743   1.081  1.1077 -1.6971 -1.1517
   40PEO   C1FC27886   2.233   5.765   0.978 -0.2272  0.3971 -0.3952
   40PEO   C1FD27887   2.221   5.921   0.965  0.4548 -0.1723  0.4777
   40PEO   H1FE27888   2.127   5.956   1.011 -0.2525  2.5361 -2.6097
   40PEO   H1FF27889   2.299   5.982   1.013  0.3722  0.4558 -0.1503
   40PEO   O20027890   2.207   5.957   0.825 -0.4009 -0.1554  0.6423
   40PEO   H20127891   2.333   5.816   0.719  1.3396 -0.4530 -1.3333
   40PEO   H20227892   2.412   5.960   0.788 -1.0222 -2.2363  2.3625
   40PEO   C20327893   2.321   5.924   0.737 -0.4400 -0.8413  0.2259
   40PEO   C20427894   2.302   5.993   0.605  0.5669 -0.2566 -0.2072
   40PEO   H20527895   2.289   6.099   0.629 -1.2214 -0.2530 -1.0215
   40PEO   H20627896   2.387   5.988   0.535 -0.9350 -1.6391 -2.0706
   40PEO   O20727897   2.180   5.951   0.537 -0.3706  0.6966  0.0486
   40PEO   H20827898   2.254   5.920   0.341 -2.3401  0.7767 -3.9720
   40PEO   H20927899   2.223   6.093   0.384  0.4384 -0.5032 -2.4590
   40PEO   C20A27900   2.190   5.989   0.398 -0.2776 -0.0472 -0.3479
   40PEO   C20B27901   2.045   5.981   0.339 -0.8278 -0.9352  0.2217
   40PEO   H20C27902   1.967   6.026   0.403 -1.9287 -2.3680 -0.0584
   40PEO   H20D27903   2.044   6.038   0.245 -0.9980 -0.4187  0.5320
   40PEO   O20E27904   2.017   5.835   0.329  0.4241  0.2265  0.3363
   40PEO   H20F27905   1.911   5.844   0.149 -1.6195  1.1916 -0.5344
   40PEO   H21027906   1.812   5.848   0.302  0.6435 -2.6607  2.3919
   40PEO   C21127907   1.904   5.810   0.254  0.5159  0.3946 -0.5852
   40PEO   C21227908   1.897   5.652   0.254  0.3699 -0.3855  0.4442
   40PEO   H21327909   1.828   5.631   0.171  1.8082 -1.7887 -0.4322
   40PEO   H21427910   1.995   5.617   0.219  0.1790  1.3680 -2.1239
   40PEO   O21527911   1.849   5.603   0.383  0.4182 -0.0724  0.4501
   40PEO   H21627912   1.810   5.426   0.489  2.7105 -1.5404 -0.4662
   40PEO   H21727913   1.855   5.390   0.324  0.7378  0.6321 -0.7986
   40PEO   C21827914   1.806   5.466   0.387  0.3547 -0.2804  0.0420
   40PEO   C21927915   1.659   5.452   0.352  0.6249  1.3374  0.0235
   40PEO   H21A27916   1.647   5.343   0.351 -0.4297  1.4339 -1.5944
   40PEO   H21B27917   1.607   5.507   0.432  1.6348  2.4881 -0.0685
   40PEO   O21C27918   1.628   5.489   0.217 -0.5216  0.2194 -0.6293
   40PEO   H21D27919   1.442   5.575   0.258  0.0312  0.4236 -0.8887
   40PEO   H21E27920   1.433   5.401   0.206  0.3318 -1.1951 -0.0526
   40PEO   C21F27921   1.485   5.497   0.193 -0.6644 -0.6483 -0.1034
   40PEO   C22027922   1.457   5.545   0.051 -0.1260 -0.0014  0.2959
   40PEO   H22127923   1.349   5.541   0.030 -0.0766  1.2040 -0.2562
   40PEO   H22227924   1.506   5.642   0.037  0.3597 -0.1297  1.0905
   40PEO   O22327925   1.505   5.468  -0.063 -0.6203  0.1457 -0.2194
   40PEO   H22427926   1.537   5.454  -0.268 -1.0369  0.2327 -0.4588
   40PEO   H22527927   1.529   5.623  -0.202 -0.0275  0.1066 -1.0520
   40PEO   C22627928   1.488   5.522  -0.196  0.0395  0.1362  0.3944
   40PEO   C22727929   1.337   5.524  -0.241 -0.4943 -0.2498  0.0771
   40PEO   H22827930   1.279   5.546  -0.151  0.1861 -0.5934  0.6069
   40PEO   H22927931   1.310   5.608  -0.306 -1.0786 -1.5743 -1.4903
   40PEO   O22A27932   1.307   5.400  -0.302  0.5232 -0.9189 -0.4307
   40PEO   H22B27933   1.371   5.268  -0.143  0.6879 -0.0292 -0.6099
   40PEO   H22C27934   1.285   5.205  -0.287  2.2175 -0.4432  0.4110
   40PEO   C22D27935   1.288   5.287  -0.213 -0.0401 -0.0955  0.2079
   40PEO   C22E27936   1.171   5.293  -0.124  0.7077  0.2608  0.1755
   40PEO   H22F27937   1.088   5.338  -0.182  0.6535  0.7483  0.6248
   40PEO   H23027938   1.154   5.191  -0.087  1.0649  1.0825  2.8405
   40PEO   O23127939   1.199   5.372  -0.005  0.3497 -0.0387  0.2405
   40PEO   H23227940   1.036   5.504  -0.008  0.1347  0.7807 -0.2571
   40PEO   H23327941   1.113   5.484   0.153  0.3431  0.2195 -1.1417
   40PEO   C23427942   1.081   5.432   0.062  0.1349  0.0596 -0.9770
   40PEO   C23527943   0.981   5.322   0.110 -0.3655 -0.5477  0.3515
   40PEO   H23627944   1.029   5.227   0.136 -0.1481 -0.6579 -0.4297
   40PEO   H23727945   0.935   5.366   0.200  1.2384  0.8442  0.5364
   40PEO   O23827946   0.880   5.295   0.010 -0.0768  0.0107  0.2229
   40PEO   H23927947   0.793   5.121   0.105  0.9855  2.2234  2.0031
   40PEO   H23A27948   0.707   5.183  -0.032  0.3824 -0.6675 -1.0182
   40PEO   C23B27949   0.765   5.215   0.055  0.7577  0.3954 -1.6394
   40PEO   C23C27950   0.678   5.286   0.165 -0.2959 -0.0768 -0.7072
   40PEO   H23D27951   0.595   5.224   0.202  0.6489 -0.2434  1.2251
   40PEO   H23E27952   0.737   5.315   0.252 -0.4724 -2.3266  0.2233
   40PEO   O23F27953   0.619   5.396   0.088 -0.2268 -0.3029 -0.0623
   40PEO   H24027954   0.640   5.541   0.233  2.1522 -2.2497 -0.0416
   40PEO   H24127955   0.474   5.476   0.221 -0.3046  0.2130  0.1192
   40PEO   C24227956   0.565   5.498   0.164  0.1996 -0.2686  0.7217
   40PEO   C24327957   0.545   5.619   0.066 -0.8750 -0.5176 -0.3616
   40PEO   H24427958   0.494   5.580  -0.023  0.8123 -1.1957 -1.0671
   40PEO   H24527959   0.483   5.700   0.109  1.6265  0.8969  0.8577
   40PEO   O24627960   0.675   5.669   0.049  0.0317 -0.1666 -0.8643
   40PEO   H24727961   0.626   5.866   0.083 -1.0915 -1.4014  1.4297
   40PEO   H24827962   0.636   5.805  -0.091 -0.9930 -2.1458  1.1598
   40PEO   C24927963   0.684   5.811   0.008 -0.3308  0.3028  0.7426
   40PEO   C24A27964   0.830   5.852   0.016  0.7938 -0.5337  0.4039
   40PEO   H24B27965   0.892   5.764  -0.008  2.5301  0.5323  0.8126
   40PEO   H24C27966   0.853   5.932  -0.056 -1.0860 -1.1162 -0.9176
   40PEO   O24D27967   0.855   5.886   0.148 -0.2215  0.2533  0.4897
   40PEO   H24E27968   1.043   5.965   0.097 -0.4305 -1.8817 -1.1424
   40PEO   H24F27969   1.042   5.802   0.161 -2.6011 -1.7057  1.2497
   40PEO   C25027970   0.995   5.901   0.172 -0.4783 -0.5019  0.0432
   40PEO   C25127971   1.023   5.964   0.316  0.3100  0.1263  0.1953
   40PEO   H25227972   0.952   5.922   0.389  0.0999  0.9971  0.4936
   40PEO   H25327973   1.125   5.941   0.350  0.5958  2.3871  1.0330
   40PEO   O25427974   1.009   6.104   0.314 -0.2577  0.2057 -0.3830
   40PEO   H25527975   0.872   6.165   0.159 -0.0546 -0.6648  0.6858
   40PEO   H25627976   0.887   6.276   0.291  0.0713 -0.8258  3.2250
   40PEO   C25727977   0.888   6.168   0.267  0.1660 -0.3337  0.6425
   40PEO   C25827978   0.760   6.121   0.334 -0.0185 -1.0833  0.0200
   40PEO   H25927979   0.675   6.161   0.277 -0.0346  0.5560  1.1175
   40PEO   H25A27980   0.748   6.012   0.340 -1.9954 -0.8799  0.5270
   40PEO   O25B27981   0.748   6.168   0.467  0.0604 -0.6455  0.6871
   40PEO   H25C27982   0.908   6.054   0.537  0.9905  1.4550  0.9208
   40PEO   H25D27983   0.745   5.990   0.568 -0.4807  0.2694 -0.8768
   40PEO   C25E27984   0.806   6.082   0.569  0.1438 -0.1368 -0.2727
   40PEO   C25F27985   0.799   6.158   0.707 -0.4262 -1.4352  0.3904
   40PEO   H26027986   0.698   6.200   0.721  0.3215  0.6636 -0.2219
   40PEO   H26127987   0.814   6.086   0.789 -0.0178 -3.5348 -1.4265
   40PEO   O26227988   0.903   6.255   0.728  0.0745  0.1393 -0.3700
   40PEO   H26327989   0.796   6.398   0.632 -1.3845 -3.6940 -3.4705
   40PEO   H26427990   0.906   6.340   0.526  0.3994  1.0801  0.4860
   40PEO   C26527991   0.899   6.360   0.634 -0.0750 -0.7984  0.8406
   40PEO   C26627992   0.999   6.478   0.671 -0.3539  0.1340 -0.0818
   40PEO   H26727993   1.004   6.549   0.587  1.6646  0.0321 -0.1019
   40PEO   H26827994   0.974   6.547   0.752  1.2297 -0.7762  1.2460
   40PEO   O26927995   1.128   6.423   0.709 -0.0269 -0.4719 -0.1085
   40PEO   H26A27996   1.215   6.609   0.773  2.4998  2.5090 -1.7470
   40PEO   H26B27997   1.252   6.555   0.615  0.2185  0.5311  0.3560
   40PEO   C26C27998   1.239   6.517   0.718  0.0796  0.4778  0.3191
   40PEO   C26D27999   1.357   6.429   0.770  0.4627 -0.4894 -0.2755
   40PEO   H26E28000   1.446   6.485   0.800 -0.2254 -0.3835  1.7458
   40PEO   H26F28001   1.332   6.359   0.852  1.2830  1.3987  1.6885
   40PEO   O27028002   1.407   6.362   0.656 -0.2927  0.2532  0.3497
   40PEO   H27128003   1.251   6.220   0.661  0.9715  1.0717  1.6588
   40PEO   H27228004   1.402   6.151   0.604  0.2823 -0.5593 -0.1186
   40PEO   C27328005   1.339   6.240   0.599  0.0793 -0.7117 -0.3203
   40PEO   C27428006   1.282   6.258   0.451 -0.3241 -0.2740 -0.6987
   40PEO   H27528007   1.200   6.192   0.419 -0.2345 -0.5529 -0.3577
   40PEO   H27628008   1.247   6.362   0.448 -2.8545 -1.0840 -2.5739
   40PEO   O27728009   1.391   6.271   0.355  0.3042  0.3938 -0.3175
   40PEO   H27828010   1.429   6.265   0.145  0.7669 -1.8133  0.2718
   40PEO   H27928011   1.254   6.267   0.195  0.2416  0.5533 -0.0590
   40PEO   C27A28012   1.355   6.231   0.219 -0.0513 -0.0440  0.2995
   40PEO   C27B28013   1.364   6.072   0.226 -0.1094 -0.2084  0.4432
   40PEO   H27C28014   1.340   6.043   0.329  2.5722 -2.2599  0.6145
   40PEO   H27D28015   1.302   6.020   0.152 -0.7093 -3.0652  2.8138
   40PEO   O27E28016   1.505   6.042   0.206  0.5465  0.0584 -0.1739
   40PEO   H27F28017   1.647   5.892   0.181  0.0566 -2.7771 -2.6888
   40PEO   H28028018   1.492   5.846   0.110  0.3510 -0.2305 -0.4767
   40PEO   C28128019   1.538   5.899   0.195  0.4142 -1.1544  0.0767
   40PEO   C28228020   1.510   5.845   0.333  0.5098  0.0538 -0.1287
   40PEO   H28328021   1.584   5.773   0.369  1.3968  0.8395 -0.3321
   40PEO   H28428022   1.514   5.931   0.401 -0.2092  0.3211 -0.4161
   40PEO   O28528023   1.380   5.791   0.345  0.0643 -0.4204  0.8582
   40PEO   H28628024   1.358   5.833   0.537  0.3519  0.0830 -1.2901
   40PEO   H28728025   1.446   5.675   0.511 -0.9322 -0.1282  3.0037
   40PEO   C28828026   1.364   5.741   0.477 -0.0129 -0.5535 -0.3871
   40PEO   C28928027   1.234   5.675   0.482 -0.4105 -0.0928 -0.1048
   40PEO   H28A28028   1.198   5.692   0.585  0.1476  0.8595 -0.0470
   40PEO   H28B28029   1.159   5.711   0.411 -0.4955  0.8518  0.4412
   40PEO   O28C28030   1.252   5.537   0.449 -0.8120 -0.4582 -0.0853
   40PEO   H28D28031   1.065   5.509   0.378 -0.9559  1.0437  1.5301
   40PEO   H28E28032   1.078   5.457   0.543  0.2739  2.2741  0.3383
   40PEO   C28F28033   1.133   5.459   0.448  0.0182  0.3189  0.1123
   40PEO   C29028034   1.160   5.313   0.405 -0.5456  0.4598  0.2983
   40PEO   H29128035   1.068   5.260   0.377 -0.5364 -1.3298  3.2527
   40PEO   H29228036   1.226   5.313   0.316 -0.0035 -1.0520  0.6587
   40PEO   O29328037   1.213   5.239   0.516 -0.0074 -0.5042  0.3453
   40PEO   H29428038   1.310   5.081   0.410  1.9035 -1.6993  1.9756
   40PEO   H29528039   1.144   5.045   0.468  0.9849 -2.0333  3.3921
   40PEO   C29628040   1.237   5.099   0.491  0.7693 -0.3268  0.6954
   40PEO   C29728041   1.314   5.026   0.605 -0.1553 -0.0357  0.4993
   40PEO   H29828042   1.370   4.940   0.567  0.5515  0.8035 -0.3870
   40PEO   H29928043   1.384   5.094   0.654  0.9745  0.7040 -1.9810
   40PEO   O29A28044   1.205   4.974   0.698 -0.3506 -0.1620 -0.3201
   40PEO   H29B28045   1.249   5.012   0.891 -0.5881  0.5493 -1.4815
   40PEO   H29C28046   1.347   4.888   0.822  1.6784  3.1662  1.9200
   40PEO   C29D28047   1.244   4.926   0.822  0.3425  0.0162 -0.9134
   40PEO   C29E28048   1.141   4.815   0.860  0.1203 -0.3669 -1.5547
   40PEO   H29F28049   1.118   4.833   0.966  0.6086 -1.0764 -1.3211
   40PEO   H2A028050   1.047   4.832   0.806 -1.7369  2.6168  2.1336
   40PEO   O2A128051   1.199   4.684   0.845 -0.2938  0.2071  0.2258
   40PEO   H2A228052   1.293   4.715   1.025  0.1661  1.5940 -2.5890
   40PEO   H2A328053   1.376   4.625   0.892 -1.9280 -0.5750 -2.1540
   40PEO   C2A428054   1.283   4.634   0.951 -0.6455 -0.8249  0.0080
   40PEO   C2A528055   1.237   4.500   1.024 -0.0644 -0.1076  1.0443
   40PEO   H2A628056   1.200   4.426   0.951  0.8365 -0.1974  0.6737
   40PEO   H2A728057   1.318   4.446   1.075 -0.6654 -1.0058  1.0584
   40PEO   O2A828058   1.120   4.529   1.103 -0.0200  0.2425  0.1164
   40PEO   H2A928059   1.123   4.313   1.154 -0.6885 -0.5083 -0.0953
   40PEO   H2AA28060   1.004   4.410   1.234 -1.2730  0.6387 -2.9219
   40PEO   C2AB28061   1.106   4.415   1.192  0.2632 -0.4982  0.3254
   40PEO   C2AC28062   1.191   4.418   1.315  0.1363 -0.2299 -0.4092
   40PEO   H2AD28063   1.176   4.329   1.377 -1.8962 -0.8841 -1.7654
   40PEO   H2AE28064   1.298   4.416   1.289  0.1776 -1.9568 -0.2198
   40PEO   O2AF28065   1.160   4.538   1.393  0.2176 -0.2484 -0.3041
   40PEO   H2B028066   1.184   4.747   1.432 -0.0313  1.5300 -1.0336
   40PEO   H2B128067   1.194   4.702   1.260 -0.4921 -0.8181 -0.1892
   40PEO   C2B228068   1.219   4.669   1.363 -0.5630  0.1856  0.1591
   40PEO   C2B328069   1.368   4.662   1.358 -0.1661  0.2719  0.2345
   40PEO   H2B428070   1.408   4.573   1.308 -2.1287 -0.9941  0.8068
   40PEO   H2B528071   1.401   4.752   1.304  0.5187  0.4566  0.9482
   40PEO   O2B628072   1.431   4.664   1.491  0.4541  0.0528 -0.5135
   40PEO   H2B728073   1.628   4.782   1.496  4.2813 -1.0688  2.4934
   40PEO   H2B828074   1.623   4.610   1.425 -1.5213 -0.1850 -0.5986
   40PEO   C2B928075   1.583   4.682   1.498 -0.0812  0.5273 -0.4775
   40PEO   C2BA28076   1.611   4.629   1.640  0.0704 -0.2977 -1.1636
   40PEO   H2BB28077   1.543   4.548   1.670 -0.4760  1.0724  1.6836
   40PEO   H2BC28078   1.713   4.589   1.649  0.4718  0.8615 -0.1579
   40PEO   O2BD28079   1.591   4.745   1.730 -0.7252 -0.0485 -0.5301
   40PEO   H2BE28080   1.649   4.807   1.684  1.8055 -2.0398 -0.2872
   41Li    Li0128081   1.826   0.016   6.380 -0.3764  0.5740  0.1032
   42Li    Li0128082   4.642   0.175   2.032 -0.2225  0.8203 -0.5486
   43Li    Li0128083   0.576   5.225   2.883 -1.2020 -1.2655  0.8515
   44Li    Li0128084   1.163   6.597   6.746 -1.0805  1.4470  0.7824
   45Li    Li0128085   1.545   0.835   3.718 -0.6987 -1.1614  1.3825
   46Li    Li0128086   5.212   6.529   6.067  0.4811  0.4448  0.5411
   47Li    Li0128087   4.936   0.227   0.344  0.6284 -0.9328 -0.2075
   48Li    Li0128088   6.108   5.934   0.296 -0.6337 -0.4220 -0.1497
   49Li    Li0128089   0.733   0.638   2.748  0.3318 -0.0990 -0.9858
   50Li    Li0128090   5.982   4.826   3.947 -0.4028  0.1406  0.4495
   51Li    Li0128091   6.775   5.704   3.924  0.0403 -0.3333  0.3680
   52Li    Li0128092   2.476   2.939   2.327  0.3974 -0.1010 -0.1072
   53Li    Li0128093   4.565   6.328   0.049  0.1462 -0.3590  0.2597
   54Li    Li0128094   2.071   5.040   3.151 -0.2834 -0.1133 -0.5947
   55Li    Li0128095   5.767   6.458   3.615  0.8384  0.1453 -0.2482
   56Li    Li0128096   4.946   5.528   6.275  0.6994 -0.0551  0.6055
   57Li    Li0128097   4.982   4.080   6.511  1.2074  0.1160 -1.2941
   58Li    Li0128098   4.363   0.787   0.446 -0.5114  0.8672  0.1186
   59Li    Li0128099   5.725   2.348   6.112  0.2981  1.0371 -0.0932
   60Li    Li0128100   6.044   6.047   5.500  0.0075 -0.8111 -0.8083
   61Li    Li0128101   4.022   0.467   3.065 -1.1037 -0.3748  1.0419
   62Li    Li0128102   5.341   5.128   0.658 -0.7772  0.2606  0.2718
   63Li    Li0128103   2.718   2.679   1.289 -0.5123  0.7101 -0.8473
   64Li    Li0128104   4.406   6.528   0.874  0.5623 -0.0906 -0.0395
   65Li    Li0128105   0.257   6.365   2.914  0.1488 -0.5074 -0.0246
   66Li    Li0128106   3.254   4.751   6.629  0.2671  0.2151  0.6553
   67Li    Li0128107   2.328   0.107   4.664 -1.5738  0.4799  0.8328
   68Li    Li0128108   2.511   2.460   6.362 -0.9149 -0.7001 -0.8346
   69Li    Li0128109   5.419   4.065   3.810 -0.2218  0.3280 -0.1103
   70Li    Li0128110   2.635   0.340   0.323  0.1029 -0.3696 -0.9765
   71Li    Li0128111   6.251   3.198   6.068  0.0336 -0.1786  0.0903
   72Li    Li0128112   1.352   5.125   1.610 -0.6067 -0.1748 -0.8710
   73Li    Li0128113   0.534   5.290   6.455  0.7175  0.6557  0.8707
   74Li    Li0128114   6.190   4.857   0.165 -0.1093 -1.1869 -0.8750
   75Li    Li0128115   0.630   5.875   5.249  0.0891  1.4328  0.6368
   76Li    Li0128116   1.533   6.510   3.992  0.6459  0.5853  0.6238
   77Li    Li0128117   0.311   0.335   1.630  0.4210 -0.1067 -1.1109
   78Li    Li0128118   5.101   5.864   0.477  0.5960  0.5511 -0.2020
   79Li    Li0128119   5.668   2.028   4.801 -0.3624  0.2574 -0.9948
   80Li    Li0128120   6.090   0.845   6.193  0.2145 -0.4892 -0.9207
   81Li    Li0128121   1.414   5.548   5.022 -0.4518  0.4286 -1.3351
   82Li    Li0128122   1.836   6.426   0.088  0.4801 -0.5579 -0.2629
   83Li    Li0128123   6.627   5.043   4.488  0.8365 -0.2291 -0.4007
   84Li    Li0128124   6.278   6.457   4.846 -0.1655 -0.0440 -0.0160
   85Li    Li0128125   5.661   6.699   0.285  0.8253  0.3875 -0.6835
   86Li    Li0128126   0.735   4.151   5.634  0.5597  0.8151 -0.3330
   87Li    Li0128127   0.067   4.642   5.657  0.1899 -0.9379 -0.4906
   88Li    Li0128128   1.719   5.117   5.466 -0.0712 -0.4796 -0.0472
   89Li    Li0128129   2.483   3.240   4.912  0.5826  0.3950 -0.5612
   90Li    Li0128130   0.168   6.199   4.692  0.3272 -0.7887 -0.1627
   91Li    Li0128131   4.941   2.056   4.515  0.1895 -0.4907  0.4856
   92Li    Li0128132   5.200   4.070   1.556 -0.0603  0.7084 -0.4284
   93Li    Li0128133   2.780   6.596   6.616 -0.7528 -0.2993 -0.0778
   94Li    Li0128134   2.881   5.502   1.431 -0.1406  0.2035 -0.2950
   95Li    Li0128135   4.729   4.037   1.077  0.8743 -0.3704  0.5142
   96Li    Li0128136   0.726   6.027   3.213 -0.0072  0.8999  0.9268
   97Li    Li0128137   1.951   5.025   1.601  0.3411 -0.2681  0.4944
   98Li    Li0128138   4.595   2.215   5.924 -0.1995 -0.0926 -0.5260
   99Li    Li0128139   5.617   6.164   6.513 -1.3482 -0.9078  0.4488
  100Li    Li0128140   6.446   4.071   0.800  0.1065 -0.5502  0.4329
  101Li    Li0128141   0.584   0.008   4.581 -0.7369  0.4513  1.0665
  102Li    Li0128142   5.456   5.624   5.028  0.5063  0.5509  0.5957
  103Li    Li0128143   4.771   4.118   2.871 -0.0978 -0.5420 -1.3234
  104Li    Li0128144   3.252   5.101   5.829 -0.0236 -0.9291 -0.6942
  105Li    Li0128145   5.413   3.212   4.056  0.6997  0.9255  0.2934
  106Li    Li0128146   5.840   4.577   5.052 -0.1238  0.4141  0.0950
  107Li    Li0128147   6.295   1.010   3.082 -0.0603 -1.0316  0.4460
  108Li    Li0128148   6.013   2.313   3.281  0.2557  0.3491  0.1921
  109Li    Li0128149   1.312   6.639   4.784  1.1531  0.5736  2.1016
  110Li    Li0128150   6.097   5.058   2.294  0.1857 -0.0504 -1.2263
  111Li    Li0128151   4.415   3.418   5.981 -0.6049  0.2545 -0.3260
  112Li    Li0128152   0.980   1.914   6.419 -0.3469  1.0585  0.2975
  113Li    Li0128153   2.696   5.814   5.260 -0.1416  0.1057 -1.2989
  114Li    Li0128154   5.069   0.733   5.426  1.2090 -1.4087  0.6813
  115Li    Li0128155   6.172   0.436   0.172 -1.0410 -0.9836 -0.5102
  116Li    Li0128156   5.490   0.945   0.495  0.2745  0.2983  0.4359
  117Li    Li0128157   0.901   6.336   2.516  0.5678 -0.0160 -0.3390
  118Li    Li0128158   5.405   2.807   5.206  0.1643 -0.2099 -0.2671
  119Li    Li0128159   4.484   1.365   6.298  0.8820  1.2205 -0.5928
  120Li    Li0128160   5.863   0.069   5.611 -1.5479  0.4845  0.0589
  121Li    Li0128161   2.394   0.944   6.395 -0.1755  0.0503  0.4441
  122Li    Li0128162   1.612   0.199   2.784  0.4897 -0.2680 -0.1738
  123Li    Li0128163   0.178   5.565   4.905 -1.0084  1.4195  0.1173
  124Li    Li0128164   2.446   2.089   2.168 -0.1312 -0.2878  0.0346
  125Li    Li0128165   5.274   0.466   6.423  0.0167 -0.2819  1.0825
  126Li    Li0128166   4.287   4.044   4.332  0.8972  0.0731 -0.3321
  127Li    Li0128167   3.794   2.499   6.385 -0.5265  0.9161 -1.1404
  128Li    Li0128168   5.729   3.226   4.687 -0.3010  0.7687 -0.4631
  129Li    Li0128169   0.488   6.662   0.704  0.0288 -1.0021  0.1301
  130Li    Li0128170   2.366   6.550   5.797 -1.0220 -1.1057 -0.2507
  131Li    Li0128171   0.893   5.636   4.008  0.2147 -0.4653  0.6443
  132Li    Li0128172   5.235   0.866   4.501  0.5023  1.0156 -1.0011
  133Li    Li0128173   6.613   6.755   0.569 -0.1833  1.4261 -1.1496
  134Li    Li0128174   5.617   5.752   6.052  0.6939  0.1167 -0.0334
  135Li    Li0128175   0.194   5.383   5.492  0.2270  1.0681 -0.7134
  136Li    Li0128176   6.213   5.061   5.473 -0.9365 -1.5935  1.1407
  137Li    Li0128177   2.003   6.560   5.166  0.2455  0.2667 -0.9877
  138Li    Li0128178   6.163   6.637   1.675 -0.1097  0.0960  0.5615
  139Li    Li0128179   1.781   5.969   0.762 -0.6560  0.3945  0.0621
  140Li    Li0128180   1.532   3.458   0.141  1.0290  1.1120 -0.1905
  141Li    Li0128181   6.523   2.338   0.019 -1.1928 -0.0487 -0.6164
  142Li    Li0128182   2.318   5.485   0.355  0.2276  0.5556 -0.7303
  143Li    Li0128183   0.921   0.884   1.129 -0.5659 -0.5832  0.8606
  144Li    Li0128184   6.132   5.805   1.262 -0.2787 -0.2844  0.3464
  145Li    Li0128185   1.413   5.979   4.462 -0.5366 -0.4517  0.9133
  146Li    Li0128186   3.145   5.822   4.641  0.2948  0.2436 -0.2094
  147Li    Li0128187   6.563   3.766   3.100  0.3496  1.2366  0.2119
  148Li    Li0128188   1.116   6.421   1.558 -0.1674  0.1628  0.9487
  149Li    Li0128189   5.988   5.367   4.358 -0.4822  0.6499  0.4600
  150Li    Li0128190   3.090   0.694   3.070 -0.2880  0.3193  0.5160
  151Li    Li0128191   6.544   0.633   4.857  0.6243  0.4035  0.7770
  152Li    Li0128192   1.212   0.603   0.150  0.1236 -0.1500 -0.1161
  153Li    Li0128193   0.918   5.058   4.815  0.6291 -0.4123  0.2447
  154Li    Li0128194   0.399   0.628   6.134  0.1460  0.2691 -0.2595
  155Li    Li0128195   5.312   0.161   1.042  0.9410 -0.1724 -0.0480
  156Li    Li0128196   1.061   5.313   5.648  0.9060  0.1536 -0.3842
  157Li    Li0128197   5.029   5.714   2.535  0.3766 -0.8199  0.1456
  158Li    Li0128198   0.544   0.244   5.302 -0.1291  1.0704 -0.7125
  159Li    Li0128199   6.698   6.346   5.843  0.3873  1.2602 -0.4941
  160Li    Li0128200   3.649   5.187   4.754 -0.4023  0.9750 -0.6415
  161TFSI   N0128201   6.423   5.277   3.860 -0.0576 -0.3205 -0.6867
  161TFSI   S0228202   6.434   5.122   3.815 -0.4512 -0.3598  0.0813
  161TFSI   S0328203   6.298   5.348   3.930 -0.0268  0.4783 -0.1389
  161TFSI   C0428204   6.219   5.429   3.775  0.9107 -0.6506  0.2530
  161TFSI   C0528205   6.539   5.053   3.953 -0.1442  0.4652 -0.6983
  161TFSI   F0628206   6.452   5.035   4.066 -0.3203  0.3933  0.1333
  161TFSI   F0728207   6.640   5.128   4.000  0.0932 -0.5846  0.4498
  161TFSI   F0828208   6.581   4.927   3.919 -0.1032 -0.3428 -0.3609
  161TFSI   F0928209   6.304   5.517   3.710  0.5718  0.3092  0.0063
  161TFSI   F0A28210   6.182   5.334   3.683 -0.0240  0.1599  0.4552
  161TFSI   F0B28211   6.108   5.502   3.790 -0.1054 -0.2608  0.0973
  161TFSI   O0C28212   6.326   5.019   3.814 -0.3985  0.1013 -0.3232
  161TFSI   O0D28213   6.525   5.106   3.706 -0.3085 -0.5215  0.2125
  161TFSI   O0E28214   6.328   5.466   4.000  0.2389 -0.1409 -0.5444
  161TFSI   O0F28215   6.197   5.255   3.984  0.7431 -0.1548  0.5144
  162TFSI   N0128216   1.762   4.891   0.914 -0.4280 -0.7429  0.4242
  162TFSI   S0228217   1.742   4.743   0.867 -0.2094 -0.1936  0.0474
  162TFSI   S0328218   1.782   4.930   1.067  0.4007 -0.1428 -0.2720
  162TFSI   C0428219   1.599   4.960   1.115  0.7458 -0.4443 -0.9292
  162TFSI   C0528220   1.915   4.683   0.810  0.6730  0.5353  0.3762
  162TFSI   F0628221   1.921   4.559   0.762  0.0835  0.2408  0.9182
  162TFSI   F0728222   2.005   4.675   0.902 -0.1611  0.0654 -0.3021
  162TFSI   F0828223   1.957   4.761   0.712  0.5659  0.3335  0.3496
  162TFSI   F0928224   1.525   5.033   1.027 -0.3552  0.4178  0.1149
  162TFSI   F0A28225   1.534   4.844   1.140 -0.4912  0.1454  0.4330
  162TFSI   F0B28226   1.580   5.037   1.226  0.0834 -0.7631  0.6098
  162TFSI   O0C28227   1.691   4.644   0.966  0.4305 -0.7717  0.0661
  162TFSI   O0D28228   1.664   4.760   0.749  0.5772  0.1835 -0.0016
  162TFSI   O0E28229   1.850   5.059   1.073  0.3342 -0.5503 -0.5258
  162TFSI   O0F28230   1.826   4.825   1.155  0.0252  0.3266 -0.2777
  163TFSI   N0128231   4.984   1.646   5.714 -0.5248  0.2250 -0.2720
  163TFSI   S0228232   5.088   1.750   5.779 -0.0849 -0.0232  0.0631
  163TFSI   S0328233   4.825   1.661   5.711 -0.2308  0.6171  0.2638
  163TFSI   C0428234   4.777   1.568   5.871 -0.7700  0.0881  0.7260
  163TFSI   C0528235   5.068   1.894   5.654  0.5856 -0.3193 -0.0560
  163TFSI   F0628236   5.021   1.998   5.721  0.3518  0.0574 -0.4001
  163TFSI   F0728237   4.978   1.865   5.563  0.3330  0.4770 -0.0987
  163TFSI   F0828238   5.177   1.935   5.596 -0.5261 -0.0752  0.0878
  163TFSI   F0928239   4.836   1.445   5.880  0.0392 -0.5982 -0.0579
  163TFSI   F0A28240   4.823   1.640   5.979  0.1735 -0.5173 -0.0278
  163TFSI   F0B28241   4.649   1.548   5.895 -1.2548  0.0620  0.4237
  163TFSI   O0C28242   5.042   1.811   5.905 -0.0494  0.3867  0.3002
  163TFSI   O0D28243   5.224   1.705   5.770  0.4551 -0.0748 -0.5545
  163TFSI   O0E28244   4.771   1.572   5.609 -0.2882 -0.2328  0.2073
  163TFSI   O0F28245   4.766   1.794   5.741 -0.3117 -0.1102 -0.1602
  164TFSI   N0128246   5.094   6.579   0.449 -0.6877  0.8289  0.0263
  164TFSI   S0228247   5.176   6.596   0.580  0.5812  0.3829  0.1394
  164TFSI   S0328248   5.042   6.448   0.380 -0.1810 -0.7310 -0.2824
  164TFSI   C0428249   5.181   6.418   0.242 -0.0201 -0.2838  0.2997
  164TFSI   C0528250   5.035   6.602   0.706  0.3798 -0.0411  0.5351
  164TFSI   F0628251   5.070   6.671   0.815 -0.1769 -0.1073  0.0678
  164TFSI   F0728252   5.006   6.484   0.744  0.3406  0.1056 -0.0940
  164TFSI   F0828253   4.922   6.658   0.655 -0.2984 -0.2207  0.1683
  164TFSI   F0928254   5.143   6.475   0.122  0.3905  0.6769  0.3721
  164TFSI   F0A28255   5.303   6.461   0.275  0.0925  0.1359 -0.2917
  164TFSI   F0B28256   5.205   6.293   0.208  0.0205  0.0123  0.2684
  164TFSI   O0C28257   5.255   6.486   0.627 -0.4584  0.3113  0.0765
  164TFSI   O0D28258   5.224   6.732   0.586  0.7626  0.1626 -0.6551
  164TFSI   O0E28259   4.920   6.477   0.307  0.1103 -0.1145  0.2415
  164TFSI   O0F28260   5.067   6.321   0.452 -0.2674 -0.1255  0.4736
  165TFSI   N0128261   2.153   0.438   0.053  0.2770 -0.3813  0.3928
  165TFSI   S0228262   2.175   0.455  -0.105  0.3612  0.7181 -0.5063
  165TFSI   S0328263   2.048   0.346   0.130 -0.0431  0.1983  0.1075
  165TFSI   C0428264   1.897   0.472   0.132 -0.0976  0.0608  0.1418
  165TFSI   C0528265   2.274   0.296  -0.140  1.0740  1.0211 -0.1271
  165TFSI   F0628266   2.375   0.279  -0.051  0.3099  0.6738 -0.5821
  165TFSI   F0728267   2.327   0.305  -0.258  0.1550 -0.6715  0.5128
  165TFSI   F0828268   2.195   0.187  -0.137 -0.3420 -0.2501  0.6917
  165TFSI   F0928269   1.829   0.478   0.021 -0.5289  0.0833  0.2296
  165TFSI   F0A28270   1.810   0.445   0.234 -0.6323 -0.3830  1.0565
  165TFSI   F0B28271   1.938   0.596   0.152 -0.1989 -0.1109 -0.1075
  165TFSI   O0C28272   2.063   0.437  -0.193  0.1067 -0.3314  0.7053
  165TFSI   O0D28273   2.270   0.558  -0.132 -0.2760  0.2094  0.6574
  165TFSI   O0E28274   2.093   0.340   0.266  0.7927  0.2661  0.5437
  165TFSI   O0F28275   2.001   0.231   0.059  0.5094  0.2310  0.1214
  166TFSI   N0128276   1.107   2.987   1.924  0.0687  0.4092  0.5392
  166TFSI   S0228277   1.076   3.132   1.988  0.0282 -0.0294  0.2450
  166TFSI   S0328278   1.247   2.909   1.937 -0.1150  0.1580  0.3920
  166TFSI   C0428279   1.340   2.971   1.785  0.0607  0.6789 -0.6127
  166TFSI   C0528280   1.025   3.086   2.169  1.2107  0.4877  0.0238
  166TFSI   F0628281   1.003   3.197   2.241 -0.8311 -0.1207 -0.3047
  166TFSI   F0728282   1.110   3.010   2.240  0.5229 -0.2499  0.1075
  166TFSI   F0828283   0.898   3.023   2.151 -0.5609  0.1903 -0.6232
  166TFSI   F0928284   1.468   2.922   1.787  0.2522 -0.1377  0.4635
  166TFSI   F0A28285   1.288   2.929   1.668 -0.1714 -0.6339 -0.4253
  166TFSI   F0B28286   1.351   3.102   1.780 -0.4283 -0.7224  0.0301
  166TFSI   O0C28287   1.180   3.231   2.001 -0.3241 -0.4500 -0.5535
  166TFSI   O0D28288   0.947   3.167   1.928  0.0149 -0.2620 -0.2269
  166TFSI   O0E28289   1.233   2.767   1.908 -0.8849 -0.4056  0.1304
  166TFSI   O0F28290   1.332   2.953   2.042 -0.0028  0.4510 -0.1612
  167TFSI   N0128291   5.390   2.430   4.698 -0.0688 -0.2374 -1.0888
  167TFSI   S0228292   5.252   2.450   4.776  0.1968 -0.1391 -0.2633
  167TFSI   S0328293   5.523   2.508   4.746  0.2032 -0.4258  0.2611
  167TFSI   C0428294   5.493   2.677   4.658 -0.1977  0.2934  0.8845
  167TFSI   C0528295   5.261   2.348   4.941 -0.0408 -0.3081  0.6344
  167TFSI   F0628296   5.352   2.401   5.032  0.7008  0.0725 -0.0662
  167TFSI   F0728297   5.298   2.223   4.910 -0.5406  0.8120 -0.3056
  167TFSI   F0828298   5.141   2.342   5.006  0.0745 -0.0043 -0.1068
  167TFSI   F0928299   5.388   2.750   4.696  0.1619  0.1878  0.0409
  167TFSI   F0A28300   5.598   2.756   4.676 -0.9677 -0.8872 -0.1508
  167TFSI   F0B28301   5.484   2.665   4.520  0.2620 -0.4864  0.4781
  167TFSI   O0C28302   5.218   2.586   4.821  0.2992  0.0007  0.0996
  167TFSI   O0D28303   5.146   2.374   4.710 -0.1893 -0.1827  0.0699
  167TFSI   O0E28304   5.634   2.448   4.680  0.2214  0.0252 -0.0068
  167TFSI   O0F28305   5.530   2.544   4.890 -0.2062 -0.1571 -0.0344
  168TFSI   N0128306   4.082   1.888   6.296 -0.3085  0.5922 -0.4490
  168TFSI   S0228307   3.982   2.007   6.293  0.7404  0.2389  0.0987
  168TFSI   S0328308   4.198   1.877   6.412 -0.6279  0.7034 -0.6080
  168TFSI   C0428309   4.344   1.968   6.326  0.1230  0.4215  0.2997
  168TFSI   C0528310   3.855   1.942   6.427 -0.4854 -0.8820 -0.3929
  168TFSI   F0628311   3.796   1.826   6.388 -0.7646 -0.4551 -0.3802
  168TFSI   F0728312   3.755   2.030   6.432 -0.2563  0.1315 -0.8643
  168TFSI   F0828313   3.924   1.916   6.540 -0.1367 -0.6345 -0.2905
  168TFSI   F0928314   4.378   1.914   6.212  0.4193 -0.0593 -0.1991
  168TFSI   F0A28315   4.322   2.098   6.300  0.1093 -0.0311 -0.0175
  168TFSI   F0B28316   4.455   1.964   6.405 -0.0651 -0.2267  0.3663
  168TFSI   O0C28317   4.020   2.135   6.351  0.7082  0.5418 -0.1602
  168TFSI   O0D28318   3.902   1.999   6.174  0.0681 -0.6633  0.3184
  168TFSI   O0E28319   4.243   1.738   6.401  0.0410 -0.1168  0.2418
  168TFSI   O0F28320   4.194   1.946   6.538 -0.3809  0.0893 -0.2780
  169TFSI   N0128321   2.524   0.462   3.649  0.6015 -0.6013  0.3276
  169TFSI   S0228322   2.633   0.362   3.711  0.0144  0.1159  0.0946
  169TFSI   S0328323   2.365   0.439   3.651 -0.4833  0.5327  0.5623
  169TFSI   C0428324   2.342   0.332   3.492  0.8265  0.4792  0.2121
  169TFSI   C0528325   2.641   0.429   3.885 -0.3856 -0.3729  0.6893
  169TFSI   F0628326   2.550   0.364   3.961 -0.4086  0.2546  0.2198
  169TFSI   F0728327   2.628   0.562   3.892 -0.2526 -0.5389  0.8909
  169TFSI   F0828328   2.753   0.387   3.932  0.1215 -0.2233 -0.2719
  169TFSI   F0928329   2.228   0.335   3.419  0.3615  0.0720 -0.9155
  169TFSI   F0A28330   2.429   0.368   3.395  0.1061 -0.4072 -0.2514
  169TFSI   F0B28331   2.367   0.204   3.522 -0.6473 -0.1493 -0.3510
  169TFSI   O0C28332   2.588   0.223   3.728 -0.0049 -0.2145 -0.2505
  169TFSI   O0D28333   2.763   0.379   3.650 -0.2924 -0.2692  0.5714
  169TFSI   O0E28334   2.294   0.559   3.617  0.0247 -0.6961  0.2050
  169TFSI   O0F28335   2.306   0.355   3.757  0.1588  0.2880  0.4947
  170TFSI   N0128336   6.375   0.308   2.951  0.4134  0.1976 -0.5997
  170TFSI   S0228337   6.440   0.410   2.847  0.3082 -0.5531  0.2069
  170TFSI   S0328338   6.438   0.159   2.970 -0.1896 -0.1800  0.7728
  170TFSI   C0428339   6.337   0.051   2.855 -0.9165  1.0302 -0.2293
  170TFSI   C0528340   6.588   0.479   2.959  0.0990 -0.1961 -0.4022
  170TFSI   F0628341   6.693   0.411   2.910  0.0541  0.1105 -0.4635
  170TFSI   F0728342   6.580   0.452   3.088  0.0071  0.1729 -0.1874
  170TFSI   F0828343   6.624   0.606   2.946  0.3509 -0.0658  0.0354
  170TFSI   F0928344   6.371   0.086   2.732 -0.0494 -0.2257 -0.2453
  170TFSI   F0A28345   6.370  -0.084   2.873 -0.1217  0.2044  0.6276
  170TFSI   F0B28346   6.211   0.068   2.876 -0.5060 -0.1219 -0.2648
  170TFSI   O0C28347   6.515   0.365   2.729 -0.1391  0.6609 -0.0685
  170TFSI   O0D28348   6.349   0.519   2.834 -0.3621  0.7367  0.1506
  170TFSI   O0E28349   6.387   0.105   3.095 -0.3394 -0.3257 -0.3162
  170TFSI   O0F28350   6.579   0.140   2.935  0.0560 -0.2675 -0.0915
  171TFSI   N0128351   3.020   3.186   5.721  0.5025  0.6648 -0.8090
  171TFSI   S0228352   3.175   3.155   5.736 -0.0604 -0.1301 -0.1606
  171TFSI   S0328353   2.931   3.224   5.847 -0.0278  0.3877 -0.2405
  171TFSI   C0428354   2.850   3.059   5.900 -0.3022 -0.4427  0.6660
  171TFSI   C0528355   3.253   3.327   5.742  0.2675 -0.9764 -0.3932
  171TFSI   F0628356   3.380   3.344   5.715  0.1502  0.3454  0.5464
  171TFSI   F0728357   3.236   3.392   5.857  0.4037 -0.1120  0.0033
  171TFSI   F0828358   3.176   3.405   5.658  0.0800  0.1160 -0.1142
  171TFSI   F0928359   2.724   3.076   5.937  0.0824  0.0180  0.3006
  171TFSI   F0A28360   2.843   2.991   5.785  0.0186 -0.0788 -0.6325
  171TFSI   F0B28361   2.915   2.993   5.998  0.2662  0.2258 -0.5076
  171TFSI   O0C28362   3.225   3.102   5.861  0.6304  0.0219  0.4996
  171TFSI   O0D28363   3.224   3.098   5.609 -0.4053  0.7985  0.0250
  171TFSI   O0E28364   2.812   3.292   5.798  0.1148 -0.8504  0.4171
  171TFSI   O0F28365   2.997   3.277   5.964  0.1451  0.3711 -0.5554
  172TFSI   N0128366   0.400   6.689   2.384 -0.1161  0.1378  0.3522
  172TFSI   S0228367   0.296   6.795   2.444 -0.1937 -0.2132 -0.1532
  172TFSI   S0328368   0.557   6.727   2.363 -0.1711 -0.3897  0.2164
  172TFSI   C0428369   0.539   6.778   2.183 -0.1811 -0.7108  0.1144
  172TFSI   C0528370   0.352   6.772   2.626 -0.0272  0.5871  0.9216
  172TFSI   F0628371   0.247   6.802   2.710 -0.1545 -0.0043  0.3034
  172TFSI   F0728372   0.445   6.859   2.661 -0.3213 -0.0051 -0.0565
  172TFSI   F0828373   0.396   6.650   2.650 -0.0607  0.2868 -0.1753
  172TFSI   F0928374   0.469   6.888   2.169  1.1434 -0.7135 -0.1818
  172TFSI   F0A28375   0.660   6.807   2.136 -0.2473 -0.3506 -0.0474
  172TFSI   F0B28376   0.479   6.687   2.104  0.2433  0.5887 -0.2631
  172TFSI   O0C28377   0.323   6.942   2.440  0.1010  0.2979 -0.3586
  172TFSI   O0D28378   0.159   6.738   2.440 -0.0159  0.6037  0.7089
  172TFSI   O0E28379   0.624   6.603   2.352 -0.4863  0.1650 -1.0889
  172TFSI   O0F28380   0.611   6.843   2.434 -0.3380  0.7210  0.3631
  173TFSI   N0128381   5.289   1.071   6.192 -0.1051  0.2968 -0.2225
  173TFSI   S0228382   5.174   0.979   6.249 -0.1384  0.0584 -0.3327
  173TFSI   S0328383   5.435   1.019   6.156  0.3873 -0.0553  0.2743
  173TFSI   C0428384   5.521   1.025   6.328  0.2944 -0.0866  0.0548
  173TFSI   C0528385   5.108   0.918   6.076  0.6372  1.3492 -0.2264
  173TFSI   F0628386   5.032   1.016   6.014  0.0859  0.3928  0.0574
  173TFSI   F0728387   5.023   0.812   6.090 -0.2697  0.1221  0.5485
  173TFSI   F0828388   5.206   0.878   5.995  0.0403  0.4400  0.2202
  173TFSI   F0928389   5.478   0.941   6.419 -0.0951 -0.1113 -0.6089
  173TFSI   F0A28390   5.651   1.014   6.319  0.3736  1.0595  0.6187
  173TFSI   F0B28391   5.517   1.146   6.383  0.2637 -0.3670 -0.1604
  173TFSI   O0C28392   5.213   0.858   6.321  0.5510 -0.5229 -0.1233
  173TFSI   O0D28393   5.066   1.056   6.302  0.0908  0.3734  0.4332
  173TFSI   O0E28394   5.496   1.118   6.076 -0.4274 -0.2581  0.0551
  173TFSI   O0F28395   5.455   0.884   6.113  0.0302  0.8448 -0.1074
  174TFSI   N0128396   1.288   3.527   6.402 -0.3157 -0.3405 -0.1756
  174TFSI   S0228397   1.140   3.471   6.423 -0.3391  0.5570  0.0422
  174TFSI   S0328398   1.379   3.449   6.300  0.1629  0.3729 -0.3037
  174TFSI   C0428399   1.471   3.332   6.426  0.2478 -0.1081 -0.4523
  174TFSI   C0528400   1.067   3.581   6.281  0.6828  0.1001  0.2555
  174TFSI   F0628401   1.104   3.705   6.302 -0.0389 -0.0760 -0.1888
  174TFSI   F0728402   0.932   3.588   6.282 -0.0219  0.4725 -0.3495
  174TFSI   F0828403   1.116   3.549   6.165 -0.0383  0.3470  0.2613
  174TFSI   F0928404   1.566   3.271   6.363  0.1961  0.5105 -0.6931
  174TFSI   F0A28405   1.530   3.400   6.525  0.3660  0.0510  0.1267
  174TFSI   F0B28406   1.393   3.252   6.498  0.2325 -0.1164 -0.0327
  174TFSI   O0C28407   1.106   3.332   6.379 -0.3607 -0.4491  0.1721
  174TFSI   O0D28408   1.090   3.529   6.547  0.9257 -0.4670  0.0946
  174TFSI   O0E28409   1.489   3.542   6.274  0.1094 -0.5107  0.1303
  174TFSI   O0F28410   1.326   3.360   6.199 -0.2486 -0.0157  0.1175
  175TFSI   N0128411   2.657   5.612   0.841  0.2998  0.0140  0.1789
  175TFSI   S0228412   2.538   5.519   0.898  0.0492 -0.1959  0.1788
  175TFSI   S0328413   2.765   5.672   0.936  0.0080  0.4840 -0.2625
  175TFSI   C0428414   2.667   5.815   1.019 -0.2064 -0.8541 -0.3343
  175TFSI   C0528415   2.598   5.344   0.862 -0.0929 -0.5938 -0.0938
  175TFSI   F0628416   2.494   5.262   0.873 -0.3770  0.1877 -0.1980
  175TFSI   F0728417   2.686   5.305   0.952  0.1804  0.3814  0.1584
  175TFSI   F0828418   2.659   5.336   0.741 -0.4413  0.4737  0.3667
  175TFSI   F0928419   2.609   5.771   1.133  0.1957 -0.4056  0.0263
  175TFSI   F0A28420   2.748   5.918   1.052  0.3821  0.7123  0.5500
  175TFSI   F0B28421   2.574   5.872   0.943 -0.4778 -0.2570 -0.1101
  175TFSI   O0C28422   2.499   5.519   1.040 -0.2269 -0.1545  0.2122
  175TFSI   O0D28423   2.438   5.524   0.794  0.2827  0.3290  0.1374
  175TFSI   O0E28424   2.861   5.739   0.851 -0.0930  0.2064  0.0137
  175TFSI   O0F28425   2.815   5.590   1.039 -0.3452  0.6232 -0.2024
  176TFSI   N0128426   4.855   0.873   0.246  0.9978 -0.0230  0.2626
  176TFSI   S0228427   4.892   1.024   0.217 -0.3753 -0.5324 -0.2204
  176TFSI   S0328428   4.966   0.761   0.259 -0.2900 -0.2026  0.1977
  176TFSI   C0428429   5.005   0.718   0.078  0.1191 -0.1149  0.3138
  176TFSI   C0528430   4.947   1.100   0.386 -0.5429 -0.3676  0.1203
  176TFSI   F0628431   5.039   1.024   0.438  0.4138  0.3313  0.9169
  176TFSI   F0728432   4.835   1.097   0.462 -0.0909 -0.6703 -0.7967
  176TFSI   F0828433   4.999   1.232   0.387  0.0971  0.6561 -0.4022
  176TFSI   F0928434   4.894   0.704   0.004  0.2977  0.2903  0.5448
  176TFSI   F0A28435   5.064   0.819   0.013 -0.1963 -0.6607  0.3787
  176TFSI   F0B28436   5.084   0.607   0.071 -0.0649  0.0240  0.0696
  176TFSI   O0C28437   5.010   1.055   0.136  0.1473 -0.1640 -0.0634
  176TFSI   O0D28438   4.765   1.094   0.185 -0.8260 -0.6960 -0.6914
  176TFSI   O0E28439   4.898   0.644   0.311  0.0970  0.1373  0.2498
  176TFSI   O0F28440   5.098   0.787   0.314 -0.0078  0.4604 -0.0310
  177TFSI   N0128441   2.014   3.084   0.057  0.3652 -0.3644 -0.2078
  177TFSI   S0228442   1.986   3.236   0.016  0.3083  0.4588  0.2434
  177TFSI   S0328443   1.915   2.993   0.146  0.3525 -0.2580 -0.2631
  177TFSI   C0428444   1.927   3.045   0.323  0.0289 -0.1390 -0.2556
  177TFSI   C0528445   1.908   3.231  -0.159  0.3085  0.0263 -0.6267
  177TFSI   F0628446   1.926   3.353  -0.221  0.7818 -0.2708 -0.0415
  177TFSI   F0728447   1.778   3.192  -0.159  0.1252 -0.0201 -0.1430
  177TFSI   F0828448   1.974   3.150  -0.238 -0.5525  0.2347 -0.2638
  177TFSI   F0928449   1.867   3.168   0.355 -0.4823 -0.3574 -0.3884
  177TFSI   F0A28450   1.865   2.949   0.396  0.1771 -0.6931 -0.5566
  177TFSI   F0B28451   2.055   3.056   0.357  0.2266  0.1142 -0.2796
  177TFSI   O0C28452   1.887   3.311   0.093  0.1403  0.2590 -0.3548
  177TFSI   O0D28453   2.118   3.291  -0.011  0.1144  0.2446  0.0713
  177TFSI   O0E28454   1.975   2.860   0.133  0.1337 -0.5489  0.4184
  177TFSI   O0F28455   1.773   3.011   0.132 -0.1454 -0.6408  0.6441
  178TFSI   N0128456   4.074   2.652   5.726 -0.4219 -0.3757 -0.2614
  178TFSI   S0228457   4.027   2.559   5.850 -0.2471  0.0353  0.1085
  178TFSI   S0328458   4.071   2.606   5.569  0.2007 -0.2573  0.0249
  178TFSI   C0428459   4.210   2.474   5.558  0.3429  0.4938  0.2224
  178TFSI   C0528460   3.856   2.489   5.818  0.4757  0.2324 -0.0706
  178TFSI   F0628461   3.778   2.589   5.763 -1.1998  0.2115  0.0191
  178TFSI   F0728462   3.797   2.457   5.931  0.0041  0.7485  0.0456
  178TFSI   F0828463   3.856   2.375   5.739  0.2022 -0.3717 -0.6604
  178TFSI   F0928464   4.186   2.363   5.627  0.5186 -0.4794 -0.5905
  178TFSI   F0A28465   4.225   2.440   5.425 -0.2394 -0.1121  1.3338
  178TFSI   F0B28466   4.324   2.524   5.613  0.3772 -0.2252  0.0672
  178TFSI   O0C28467   4.112   2.446   5.882 -0.1549 -0.2203  0.1793
  178TFSI   O0D28468   4.005   2.655   5.951  0.3918 -0.1002  0.2578
  178TFSI   O0E28469   4.132   2.724   5.500 -0.1545 -0.3288 -0.4203
  178TFSI   O0F28470   3.951   2.545   5.513  0.0433  0.1647  0.6838
  179TFSI   N0128471   3.799   1.137   3.945 -0.6778  0.1436  0.4500
  179TFSI   S0228472   3.838   1.243   4.059 -0.1488  0.2554 -0.4790
  179TFSI   S0328473   3.898   1.097   3.820 -0.1935  0.0831  0.6610
  179TFSI   C0428474   3.818   1.196   3.671 -0.4242 -0.5572 -0.9406
  179TFSI   C0528475   3.948   1.136   4.172 -0.4102  0.5361  0.1797
  179TFSI   F0628476   4.051   1.068   4.106  0.6782  0.2224 -1.0244
  179TFSI   F0728477   3.868   1.047   4.228 -0.4809  0.1888 -0.0559
  179TFSI   F0828478   3.989   1.213   4.273 -0.2962  0.1135  0.4664
  179TFSI   F0928479   3.817   1.321   3.702 -0.3286 -0.0835  0.3114
  179TFSI   F0A28480   3.881   1.179   3.553  0.2005 -0.4116  0.1190
  179TFSI   F0B28481   3.686   1.163   3.662  0.1345 -0.0635 -0.3628
  179TFSI   O0C28482   3.929   1.350   4.013  0.4168  0.1644 -0.2890
  179TFSI   O0D28483   3.731   1.287   4.138  0.0674 -0.4284 -0.1546
  179TFSI   O0E28484   3.859   0.965   3.785  0.2577  0.2501  0.2712
  179TFSI   O0F28485   4.037   1.143   3.826  0.0444 -0.1678 -0.6221
  180TFSI   N0128486   4.982   0.883   0.868 -0.2072  0.4638 -0.0076
  180TFSI   S0228487   4.872   0.875   0.979 -0.3434  0.2889  0.0394
  180TFSI   S0328488   4.997   0.791   0.746  0.2372 -0.2758 -0.4024
  180TFSI   C0428489   5.086   0.631   0.824 -0.4549 -0.2734  0.3509
  180TFSI   C0528490   4.729   0.955   0.892  0.9109  0.3782  0.0431
  180TFSI   F0628491   4.762   1.065   0.822  0.4500 -0.2398 -0.0186
  180TFSI   F0728492   4.629   0.998   0.972 -0.1006  0.0921  0.5439
  180TFSI   F0828493   4.664   0.878   0.807 -0.6956 -0.1716 -0.2227
  180TFSI   F0928494   5.014   0.551   0.898  0.5388  0.6065  0.0234
  180TFSI   F0A28495   5.141   0.564   0.723 -0.1296 -0.0989 -0.4467
  180TFSI   F0B28496   5.196   0.670   0.898  0.2691 -0.0684 -0.5496
  180TFSI   O0C28497   4.833   0.743   1.024 -0.2499  0.3699 -0.1860
  180TFSI   O0D28498   4.910   0.959   1.089 -0.5122  0.0155  0.8228
  180TFSI   O0E28499   5.096   0.847   0.655  0.0862  0.3311  0.0992
  180TFSI   O0F28500   4.886   0.716   0.702 -0.3810 -0.0427 -0.5304
  181TFSI   N0128501   0.879   0.413   4.979  0.7472  0.0661 -0.1390
  181TFSI   S0228502   0.918   0.568   4.991  0.4014 -0.1628  0.3321
  181TFSI   S0328503   0.978   0.313   4.925 -0.1072  0.1138 -0.2697
  181TFSI   C0428504   0.922   0.317   4.737 -0.7558 -0.7039  0.4995
  181TFSI   C0528505   1.001   0.574   5.163 -0.1689 -0.3903  0.6895
  181TFSI   F0628506   1.117   0.498   5.167 -0.1979  0.1527 -0.3960
  181TFSI   F0728507   0.913   0.525   5.249 -0.2903  0.2037  0.3435
  181TFSI   F0828508   1.042   0.700   5.194 -1.0696 -0.1985  0.0325
  181TFSI   F0928509   0.966   0.432   4.675 -0.3828  0.1320  0.5426
  181TFSI   F0A28510   0.979   0.218   4.674 -0.2430 -0.2294 -0.2474
  181TFSI   F0B28511   0.792   0.323   4.715  0.4271  0.4765 -0.0371
  181TFSI   O0C28512   1.015   0.623   4.904  0.5200 -0.6489  0.4860
  181TFSI   O0D28513   0.784   0.631   5.000 -0.0600 -0.2261 -0.2352
  181TFSI   O0E28514   0.929   0.181   4.967 -0.3960  0.0769  0.8516
  181TFSI   O0F28515   1.115   0.345   4.921  0.2200  0.7468  0.3868
  182TFSI   N0128516   2.374   6.508   0.450 -0.7059 -0.4787  0.6010
  182TFSI   S0228517   2.342   6.662   0.437  0.0461 -0.1806  0.3686
  182TFSI   S0328518   2.271   6.391   0.477 -0.0481  0.3547 -0.2580
  182TFSI   C0428519   2.212   6.425   0.653  0.5212  0.0456 -0.7585
  182TFSI   C0528520   2.327   6.690   0.251  0.3390  0.3211  0.0434
  182TFSI   F0628521   2.429   6.616   0.201 -0.5811 -0.4769  0.6658
  182TFSI   F0728522   2.349   6.820   0.208  0.1519  0.0229  0.2268
  182TFSI   F0828523   2.210   6.645   0.205  0.2028  0.4162  0.0215
  182TFSI   F0928524   2.127   6.524   0.665  0.2528  0.0681  0.2323
  182TFSI   F0A28525   2.159   6.315   0.714  0.0231 -0.3598 -0.1063
  182TFSI   F0B28526   2.311   6.456   0.735 -0.0973  0.0969  0.3606
  182TFSI   O0C28527   2.215   6.716   0.481 -0.3411  0.3309  0.1456
  182TFSI   O0D28528   2.463   6.741   0.456 -0.0796  0.1684  0.4264
  182TFSI   O0E28529   2.353   6.268   0.481 -0.4416  0.3880  0.0803
  182TFSI   O0F28530   2.150   6.392   0.388 -0.2941  0.1867 -0.2704
  183TFSI   N0128531   4.329   1.405   1.025  0.3700 -0.1676 -0.0160
  183TFSI   S0228532   4.234   1.526   0.978 -0.3763  0.4803  0.5009
  183TFSI   S0328533   4.419   1.415   1.147  0.2618 -0.0715  0.5091
  183TFSI   C0428534   4.579   1.471   1.070  1.1598 -0.6344  0.1259
  183TFSI   C0528535   4.081   1.510   1.098 -0.1880 -0.1767  1.0290
  183TFSI   F0628536   4.065   1.388   1.135  0.5604 -0.2440 -0.2066
  183TFSI   F0728537   3.967   1.533   1.037  0.1124  0.0816 -0.2717
  183TFSI   F0828538   4.089   1.590   1.212 -0.0559  0.0423 -0.4401
  183TFSI   F0928539   4.673   1.503   1.155  0.4402 -0.5136  0.5783
  183TFSI   F0A28540   4.614   1.376   0.979  0.2408 -0.2746 -0.1914
  183TFSI   F0B28541   4.570   1.582   1.001 -0.0185  0.5075  0.1477
  183TFSI   O0C28542   4.285   1.659   1.009  0.1302 -0.1938  0.4249
  183TFSI   O0D28543   4.187   1.486   0.849 -0.3016 -0.0084  0.7090
  183TFSI   O0E28544   4.443   1.282   1.200 -0.8088 -1.1615  0.3489
  183TFSI   O0F28545   4.388   1.512   1.249 -0.1040  0.6979 -0.6387
  184TFSI   N0128546   1.610   4.984   4.750  0.1277  0.5526 -0.0132
  184TFSI   S0228547   1.508   5.100   4.720  0.3071  0.3838 -0.5168
  184TFSI   S0328548   1.568   4.859   4.840 -0.5488  0.4303 -0.1336
  184TFSI   C0428549   1.605   4.922   5.020 -0.2179 -0.5693 -0.1856
  184TFSI   C0528550   1.425   5.031   4.558 -1.0004 -0.1380 -0.0415
  184TFSI   F0628551   1.329   4.946   4.603  0.1891  0.2700 -0.1918
  184TFSI   F0728552   1.511   4.974   4.472  0.2818  0.0984 -0.2910
  184TFSI   F0828553   1.357   5.128   4.495  0.0021  0.0029 -0.6746
  184TFSI   F0928554   1.721   4.986   5.038  0.0080 -0.3078  0.6993
  184TFSI   F0A28555   1.515   5.020   5.049  0.3091 -0.6306 -0.0084
  184TFSI   F0B28556   1.595   4.822   5.106 -0.0972  0.0188 -0.7305
  184TFSI   O0C28557   1.393   5.118   4.804  0.1007  0.3939 -0.1072
  184TFSI   O0D28558   1.577   5.218   4.666  0.0034 -0.1347  0.1901
  184TFSI   O0E28559   1.671   4.759   4.821 -0.3275  0.5608  0.3066
  184TFSI   O0F28560   1.428   4.817   4.858  1.0580  0.4764  0.1200
  185TFSI   N0128561   3.735   4.887   3.748  0.3440 -0.3283 -0.4682
  185TFSI   S0228562   3.854   4.822   3.673  0.1813 -0.4621  0.1503
  185TFSI   S0328563   3.696   4.864   3.899  0.0925  0.0037 -0.5625
  185TFSI   C0428564   3.549   4.740   3.890 -0.1115  0.5212  0.0522
  185TFSI   C0528565   3.993   4.943   3.730 -0.2249  0.2112  0.1521
  185TFSI   F0628566   3.955   5.061   3.687 -0.3076 -0.1784  0.5222
  185TFSI   F0728567   4.117   4.904   3.680  0.3437  0.3887  0.2363
  185TFSI   F0828568   3.998   4.954   3.858  0.3548 -0.1624  0.3192
  185TFSI   F0928569   3.473   4.722   4.003  0.5805 -0.5022 -0.1526
  185TFSI   F0A28570   3.471   4.772   3.786  0.1423 -0.3757  0.0640
  185TFSI   F0B28571   3.595   4.618   3.851 -0.2285 -0.3482  0.1237
  185TFSI   O0C28572   3.892   4.687   3.711  0.4122  0.0421  0.7396
  185TFSI   O0D28573   3.822   4.859   3.537 -0.8134  0.5784  0.3732
  185TFSI   O0E28574   3.623   4.978   3.955  0.1987  0.8793 -0.8246
  185TFSI   O0F28575   3.804   4.793   3.976 -0.3165  0.2786 -0.5069
  186TFSI   N0128576   0.540   6.680   1.417  0.2010 -0.3484 -0.2112
  186TFSI   S0228577   0.512   6.543   1.491 -0.4802 -0.5023  0.2662
  186TFSI   S0328578   0.559   6.701   1.263 -0.0484 -0.4689  0.2042
  186TFSI   C0428579   0.737   6.644   1.244  0.5006 -0.0345  0.4585
  186TFSI   C0528580   0.318   6.576   1.501 -0.0177 -0.1705  0.6614
  186TFSI   F0628581   0.266   6.597   1.378 -0.0437 -0.1160  0.0800
  186TFSI   F0728582   0.288   6.688   1.569 -0.1471 -0.6939  0.2801
  186TFSI   F0828583   0.242   6.481   1.559 -0.4736  0.1126  0.5396
  186TFSI   F0928584   0.811   6.644   1.353 -0.3831 -0.2330 -0.2248
  186TFSI   F0A28585   0.736   6.516   1.213  0.3639  0.4567  0.2507
  186TFSI   F0B28586   0.796   6.701   1.136  0.0414 -0.1912  0.1375
  186TFSI   O0C28587   0.529   6.414   1.418  0.3873 -0.7977 -0.0470
  186TFSI   O0D28588   0.546   6.561   1.624 -1.3169  0.0665 -0.1265
  186TFSI   O0E28589   0.569   6.840   1.226  0.4099  0.2990  0.0869
  186TFSI   O0F28590   0.492   6.616   1.165 -0.3017 -0.6851  0.2657
  187TFSI   N0128591   5.592   4.476   0.989  0.7456 -0.1613 -0.4038
  187TFSI   S0228592   5.571   4.582   1.108 -0.0627 -0.4804  0.1821
  187TFSI   S0328593   5.467   4.407   0.916 -0.4456  0.3572 -0.2454
  187TFSI   C0428594   5.463   4.243   1.013  0.6162  0.2703  0.3079
  187TFSI   C0528595   5.562   4.740   1.000  0.3264 -0.6702  0.3343
  187TFSI   F0628596   5.442   4.747   0.961  0.0643  0.2021  0.3954
  187TFSI   F0728597   5.636   4.730   0.885  0.0807  0.0138  0.0140
  187TFSI   F0828598   5.595   4.853   1.057 -0.1391  0.0496  0.7305
  187TFSI   F0928599   5.398   4.258   1.127 -0.0243 -0.0886 -0.2433
  187TFSI   F0A28600   5.392   4.154   0.942  0.4536  0.0486  0.0014
  187TFSI   F0B28601   5.579   4.180   1.028  0.1174  0.1818  0.0012
  187TFSI   O0C28602   5.455   4.581   1.190  0.2578  0.0133 -0.0940
  187TFSI   O0D28603   5.707   4.577   1.158 -0.0351 -0.5705  0.1489
  187TFSI   O0E28604   5.487   4.349   0.783  0.4029  0.0333  0.9575
  187TFSI   O0F28605   5.337   4.465   0.942 -0.5786 -0.6272  0.3547
  188TFSI   N0128606   0.474   5.168   4.213  0.2556  0.0716 -0.0724
  188TFSI   S0228607   0.412   5.297   4.276  0.8062  0.0531  0.1517
  188TFSI   S0328608   0.398   5.036   4.182 -0.0430  0.3587  0.1009
  188TFSI   C0428609   0.404   4.957   4.355 -0.1640  0.2758  0.1486
  188TFSI   C0528610   0.364   5.392   4.114  0.8173  0.5745 -0.2667
  188TFSI   F0628611   0.461   5.453   4.048 -0.1966 -0.4598  0.0725
  188TFSI   F0728612   0.259   5.473   4.128  0.2288  0.0071 -0.8504
  188TFSI   F0828613   0.319   5.309   4.020 -0.0202  0.8259  0.2100
  188TFSI   F0928614   0.370   4.829   4.359 -0.0393  0.2705  0.7953
  188TFSI   F0A28615   0.526   4.961   4.418  0.3626  0.4407 -0.0222
  188TFSI   F0B28616   0.325   5.028   4.441  0.1090 -0.2510  0.3953
  188TFSI   O0C28617   0.290   5.271   4.356  0.3588 -0.2393  0.6011
  188TFSI   O0D28618   0.531   5.361   4.326  0.0271  0.2754 -0.0499
  188TFSI   O0E28619   0.473   4.942   4.097  0.2158  0.6221 -0.0300
  188TFSI   O0F28620   0.264   5.061   4.145 -0.2170 -0.6993 -0.7119
  189TFSI   N0128621   4.920   0.026   6.554  0.0950  0.2353  0.4550
  189TFSI   S0228622   4.871   0.175   6.580  0.0601 -0.6252  0.1628
  189TFSI   S0328623   4.972  -0.068   6.674  0.1094  0.0113  0.0667
  189TFSI   C0428624   5.164  -0.038   6.680  0.3453  0.1707 -0.0297
  189TFSI   C0528625   4.691   0.134   6.633  0.2589 -0.0719 -0.4104
  189TFSI   F0628626   4.683   0.064   6.750 -0.2569 -0.3657 -0.2085
  189TFSI   F0728627   4.643   0.059   6.538  0.2709  0.3247 -0.9434
  189TFSI   F0828628   4.617   0.240   6.654 -0.3119 -0.0905 -0.6900
  189TFSI   F0928629   5.210  -0.000   6.557 -0.5485 -0.2051  0.3768
  189TFSI   F0A28630   5.201   0.057   6.768 -0.4297 -0.1756  0.0580
  189TFSI   F0B28631   5.233  -0.151   6.711 -0.1515 -0.4175  0.1883
  189TFSI   O0C28632   4.921   0.244   6.696  1.1086  0.0144 -0.4107
  189TFSI   O0D28633   4.856   0.242   6.461  0.1719 -0.6655  0.0798
  189TFSI   O0E28634   4.967  -0.200   6.622  0.2623  0.9608  0.1997
  189TFSI   O0F28635   4.919  -0.051   6.812  0.2742 -0.4550  0.1541
  190TFSI   N0128636   1.513   1.473   1.924  0.1298  0.1002 -0.4023
  190TFSI   S0228637   1.542   1.470   2.082 -0.2329  0.4609  0.4719
  190TFSI   S0328638   1.460   1.597   1.838  0.0026 -0.0506 -0.2779
  190TFSI   C0428639   1.274   1.572   1.854  0.4528 -0.0447 -0.0956
  190TFSI   C0528640   1.721   1.538   2.063  0.0183 -0.8415  0.1170
  190TFSI   F0628641   1.799   1.498   2.164  0.0422 -0.5928  0.0703
  190TFSI   F0728642   1.720   1.676   2.054  0.0127  0.1154 -0.2169
  190TFSI   F0828643   1.784   1.488   1.959 -0.0610  0.2736  0.4325
  190TFSI   F0928644   1.236   1.564   1.980 -0.0963 -0.3104  0.2174
  190TFSI   F0A28645   1.189   1.670   1.811  0.1844  0.1347 -0.5898
  190TFSI   F0B28646   1.242   1.460   1.789 -0.2419  1.0636  0.0283
  190TFSI   O0C28647   1.477   1.558   2.169 -0.0767 -0.5192 -0.3354
  190TFSI   O0D28648   1.555   1.336   2.109 -0.2786  0.7703  0.7104
  190TFSI   O0E28649   1.474   1.565   1.696 -0.4607 -0.2487  0.1827
  190TFSI   O0F28650   1.484   1.725   1.895  0.2122  0.4820 -0.8364
  191TFSI   N0128651   6.276   2.000   4.394  0.2627 -0.3380  0.2442
  191TFSI   S0228652   6.149   1.948   4.314 -0.2103  0.0805 -0.1155
  191TFSI   S0328653   6.282   2.053   4.546 -0.2542 -0.1723  0.5360
  191TFSI   C0428654   6.194   2.220   4.530 -0.4965 -0.4369 -0.1861
  191TFSI   C0528655   6.044   1.830   4.420 -0.8856  0.5452  0.2812
  191TFSI   F0628656   5.977   1.886   4.518 -0.2967  1.1152 -0.2842
  191TFSI   F0728657   6.126   1.737   4.464  0.1496  0.4458  1.0180
  191TFSI   F0828658   5.955   1.762   4.344 -0.1145  0.0610 -0.8354
  191TFSI   F0928659   6.238   2.296   4.631  0.4599  0.5108  0.2780
  191TFSI   F0A28660   6.240   2.279   4.421 -0.2117 -0.4102 -0.2629
  191TFSI   F0B28661   6.059   2.224   4.521  0.1382  0.4453  0.7582
  191TFSI   O0C28662   6.052   2.057   4.289  0.4051 -0.1866  0.3457
  191TFSI   O0D28663   6.188   1.866   4.204  0.6469  0.1762  0.8155
  191TFSI   O0E28664   6.416   2.092   4.582  0.0644  0.1917  0.2533
  191TFSI   O0F28665   6.204   1.984   4.641 -0.1195 -0.2452 -0.2725
  192TFSI   N0128666   0.791   1.224   0.147 -0.0026 -0.3094 -0.3710
  192TFSI   S0228667   0.828   1.166   0.002  0.1422  0.1951  0.3775
  192TFSI   S0328668   0.767   1.126   0.273  0.2104  0.2932  0.5560
  192TFSI   C0428669   0.576   1.103   0.277 -0.2584  0.0300 -0.0292
  192TFSI   C0528670   1.014   1.121   0.025 -0.1985 -0.4258  0.7707
  192TFSI   F0628671   1.085   1.231   0.067  0.0344  0.4204 -0.0174
  192TFSI   F0728672   1.061   1.068  -0.089 -0.4784  0.6076 -1.0281
  192TFSI   F0828673   1.043   1.033   0.122 -0.1699  0.6605 -0.3733
  192TFSI   F0928674   0.511   1.213   0.253 -0.2722  0.2863  0.5159
  192TFSI   F0A28675   0.539   1.020   0.177 -0.2359 -0.3705  0.1119
  192TFSI   F0B28676   0.544   1.064   0.403  0.7602  0.0538  0.0463
  192TFSI   O0C28677   0.770   1.043  -0.038 -0.2689  0.0233 -0.1062
  192TFSI   O0D28678   0.822   1.271  -0.095  0.8315  0.1224  0.3369
  192TFSI   O0E28679   0.788   1.199   0.395  0.6628  0.0244 -0.7159
  192TFSI   O0F28680   0.811   0.987   0.264  0.4560 -0.0129  0.9921
  193TFSI   N0128681   1.938   5.996   3.985  0.1249  0.1306 -0.0067
  193TFSI   S0228682   1.834   5.968   4.098 -0.3842  0.3144 -0.3767
  193TFSI   S0328683   1.961   6.131   3.909  0.1939 -0.1046 -0.7363
  193TFSI   C0428684   1.794   6.117   3.800 -0.6345 -1.1955  0.1102
  193TFSI   C0528685   1.935   5.980   4.253 -0.4840  0.8723 -0.0287
  193TFSI   F0628686   1.993   6.095   4.259 -0.0860 -0.2813  0.3716
  193TFSI   F0728687   2.027   5.891   4.261 -0.0080 -0.0391  0.6424
  193TFSI   F0828688   1.862   5.975   4.368 -0.3382 -0.2327 -0.0131
  193TFSI   F0928689   1.797   6.005   3.726 -0.0243 -0.1804  0.5547
  193TFSI   F0A28690   1.682   6.129   3.871  0.3318  0.1536 -0.2580
  193TFSI   F0B28691   1.793   6.216   3.717  0.1000  0.6445 -0.0686
  193TFSI   O0C28692   1.745   6.079   4.136 -0.0428 -0.0341  0.1209
  193TFSI   O0D28693   1.794   5.830   4.110 -0.0985  0.0351  0.0863
  193TFSI   O0E28694   2.073   6.114   3.821 -0.0960  0.4524  0.3925
  193TFSI   O0F28695   1.937   6.253   3.978  0.1875  0.0237 -0.6207
  194TFSI   N0128696   0.267   1.092   1.866 -0.0370  0.1100 -0.0414
  194TFSI   S0228697   0.222   0.939   1.853  0.3214 -0.1149 -0.0362
  194TFSI   S0328698   0.174   1.216   1.812  0.0217 -0.0665 -0.3527
  194TFSI   C0428699   0.254   1.240   1.645  0.1311 -0.3647  0.2382
  194TFSI   C0528700   0.094   0.937   1.988 -0.2838  0.1982  0.7504
  194TFSI   F0628701  -0.009   1.006   1.948  0.3193  0.0969 -0.2476
  194TFSI   F0728702   0.152   0.987   2.097  0.6345 -1.0243  0.3986
  194TFSI   F0828703   0.041   0.821   2.029 -0.1067  0.6165  0.2721
  194TFSI   F0928704   0.383   1.280   1.660 -0.1006 -0.1369 -0.0381
  194TFSI   F0A28705   0.264   1.136   1.568  0.1075  0.6768 -0.1461
  194TFSI   F0B28706   0.192   1.337   1.573 -0.6280  0.8777 -0.3538
  194TFSI   O0C28707   0.139   0.893   1.745  0.4292 -0.1665  0.2949
  194TFSI   O0D28708   0.338   0.861   1.900  0.0666  0.4686 -0.2997
  194TFSI   O0E28709   0.212   1.335   1.881  0.0028 -0.7611 -0.2047
  194TFSI   O0F28710   0.035   1.201   1.773 -0.3243  0.4160 -0.0706
  195TFSI   N0128711   1.484   6.794   1.659 -0.3869 -0.0365  0.0236
  195TFSI   S0228712   1.461   6.908   1.550 -0.0080  0.1942  0.2299
  195TFSI   S0328713   1.548   6.829   1.803  0.1169 -0.3221  0.1278
  195TFSI   C0428714   1.734   6.819   1.763 -0.3794  0.1743 -0.7335
  195TFSI   C0528715   1.281   6.973   1.585 -0.2506 -0.1326 -0.4265
  195TFSI   F0628716   1.267   7.094   1.522 -0.1933 -0.0272  0.1197
  195TFSI   F0728717   1.249   7.002   1.717  0.1712  0.7691 -0.0683
  195TFSI   F0828718   1.180   6.900   1.534 -0.3732  0.0511  0.0895
  195TFSI   F0928719   1.779   6.925   1.696  0.6701  0.2479 -0.0584
  195TFSI   F0A28720   1.804   6.805   1.876  0.7325  0.0749 -0.5287
  195TFSI   F0B28721   1.765   6.714   1.695  0.3789  0.1347  0.5327
  195TFSI   O0C28722   1.547   7.031   1.551  0.1319  0.2939 -0.0367
  195TFSI   O0D28723   1.448   6.828   1.425 -0.0801 -0.5649  0.0265
  195TFSI   O0E28724   1.524   6.718   1.896 -0.0311 -0.1859  0.4410
  195TFSI   O0F28725   1.536   6.959   1.860  0.4169  0.4726  0.0361
  196TFSI   N0128726   2.165   1.939   5.358  0.4484 -0.8302  0.2051
  196TFSI   S0228727   2.035   1.855   5.310  0.2723 -0.3026 -0.2438
  196TFSI   S0328728   2.292   1.967   5.258 -0.1709  0.6038 -0.0475
  196TFSI   C0428729   2.424   1.839   5.332 -0.8104 -0.7725 -0.1173
  196TFSI   C0528730   1.933   1.963   5.183  0.5527  0.7310 -0.0127
  196TFSI   F0628731   1.869   1.883   5.099  0.1351  0.4972  0.0343
  196TFSI   F0728732   2.008   2.044   5.103 -0.6686  0.3206  0.2801
  196TFSI   F0828733   1.842   2.050   5.245  0.9147  0.0955  0.5114
  196TFSI   F0928734   2.542   1.890   5.297  0.3491  0.3361 -0.3291
  196TFSI   F0A28735   2.433   1.834   5.468  0.1733 -0.0905 -0.3787
  196TFSI   F0B28736   2.430   1.709   5.310  0.4521  0.4902  0.0291
  196TFSI   O0C28737   2.066   1.740   5.227 -0.3502  0.0482 -0.0888
  196TFSI   O0D28738   1.960   1.832   5.439  0.2998 -0.3579  0.1141
  196TFSI   O0E28739   2.356   2.091   5.287  0.1435 -0.4263  0.1453
  196TFSI   O0F28740   2.280   1.925   5.121 -0.1714 -0.3661  0.0157
  197TFSI   N0128741   5.679   0.644   5.163  0.5022 -0.5503 -0.6750
  197TFSI   S0228742   5.575   0.756   5.123  0.2605  0.3308 -0.0752
  197TFSI   S0328743   5.632   0.493   5.202 -0.4935 -0.2322 -0.2546
  197TFSI   C0428744   5.626   0.522   5.398 -0.0382  0.6502 -0.3710
  197TFSI   C0528745   5.597   0.762   4.932 -0.3720  0.6235 -0.4603
  197TFSI   F0628746   5.729   0.786   4.901  0.0528 -0.1073 -0.2761
  197TFSI   F0728747   5.531   0.854   4.865  0.2443  0.6986  0.3382
  197TFSI   F0828748   5.560   0.649   4.873 -0.0461  0.3005 -0.5140
  197TFSI   F0928749   5.733   0.565   5.459 -0.2269  0.4107  0.1475
  197TFSI   F0A28750   5.536   0.611   5.435  0.0628  0.6325  0.4549
  197TFSI   F0B28751   5.594   0.409   5.454  0.1465 -0.3005 -0.7008
  197TFSI   O0C28752   5.431   0.755   5.147  0.8558 -0.6392 -0.2748
  197TFSI   O0D28753   5.633   0.878   5.165 -0.5751  0.0122  0.3034
  197TFSI   O0E28754   5.752   0.415   5.189 -0.2256 -0.0685  0.0229
  197TFSI   O0F28755   5.501   0.450   5.161 -0.1885  0.3510  0.2335
  198TFSI   N0128756   0.007   6.141   5.097 -0.4980  0.5413 -0.4539
  198TFSI   S0228757   0.075   6.066   5.220  0.0868  0.6919  0.2473
  198TFSI   S0328758  -0.135   6.210   5.121  0.0956  0.0837 -0.6345
  198TFSI   C0428759  -0.251   6.078   5.065  0.7668 -0.1128  0.3506
  198TFSI   C0528760   0.152   6.200   5.333 -0.5825 -0.3735  0.4259
  198TFSI   F0628761   0.203   6.288   5.252 -0.5515 -0.3930 -0.3687
  198TFSI   F0728762   0.245   6.154   5.427  0.2175  0.4619  0.1038
  198TFSI   F0828763   0.065   6.247   5.421  0.0935  0.2195 -0.1954
  198TFSI   F0928764  -0.374   6.080   5.132  0.2639  0.1127  0.1646
  198TFSI   F0A28765  -0.282   6.090   4.935  0.7008  0.0167  0.2275
  198TFSI   F0B28766  -0.186   5.958   5.070 -0.4874 -0.4065 -0.3709
  198TFSI   O0C28767  -0.013   5.985   5.304 -0.0786 -0.2349  0.1134
  198TFSI   O0D28768   0.184   5.986   5.173 -0.3512 -0.3372  0.5120
  198TFSI   O0E28769  -0.149   6.307   5.015  0.3359 -0.4735 -0.5443
  198TFSI   O0F28770  -0.177   6.236   5.262  0.4521  1.1880  0.1595
  199TFSI   N0128771   4.603   1.735   3.039  0.8398 -0.0513  0.1349
  199TFSI   S0228772   4.489   1.792   2.947 -0.2357 -0.2670 -0.3404
  199TFSI   S0328773   4.566   1.719   3.189 -0.1463 -0.2738  0.5234
  199TFSI   C0428774   4.678   1.860   3.257 -0.1026  0.1848  0.1183
  199TFSI   C0528775   4.370   1.640   2.940  0.5226 -0.7202  0.0500
  199TFSI   F0628776   4.437   1.530   2.926  0.1743  0.3435 -0.1104
  199TFSI   F0728777   4.292   1.630   2.832 -0.2254 -0.2293 -0.7282
  199TFSI   F0828778   4.292   1.613   3.047 -0.0207  0.0513 -0.3549
  199TFSI   F0928779   4.616   1.976   3.238 -0.8192  0.3424  0.0475
  199TFSI   F0A28780   4.677   1.845   3.390  0.0647 -0.1131  0.0420
  199TFSI   F0B28781   4.805   1.866   3.208  0.3616 -0.5216  0.1564
  199TFSI   O0C28782   4.416   1.903   3.005  0.5131  0.7167 -0.3975
  199TFSI   O0D28783   4.552   1.816   2.820 -0.4560 -0.4190  0.3986
  199TFSI   O0E28784   4.635   1.600   3.238 -0.6895  0.4089 -0.3298
  199TFSI   O0F28785   4.438   1.760   3.243 -0.0358 -0.0000 -0.6497
  200TFSI   N0128786   6.766   0.030   4.621  0.0550 -0.3114  0.5927
  200TFSI   S0228787   6.627   0.026   4.537 -0.1855 -0.0866  0.0446
  200TFSI   S0328788   6.808  -0.073   4.733 -0.2283  0.2692  0.0435
  200TFSI   C0428789   6.716  -0.007   4.890 -0.9999  0.9159 -0.0353
  200TFSI   C0528790   6.683  -0.067   4.382  0.0024  0.3055  0.8317
  200TFSI   F0628791   6.808  -0.033   4.341 -0.0916 -0.2579  0.2253
  200TFSI   F0728792   6.606  -0.032   4.273  0.0884 -0.0878 -0.5289
  200TFSI   F0828793   6.685  -0.198   4.388 -0.3836 -1.0056 -0.4507
  200TFSI   F0928794   6.752  -0.075   5.000 -0.0214 -0.0191  0.2164
  200TFSI   F0A28795   6.754   0.120   4.901  0.0552  0.2611  0.0954
  200TFSI   F0B28796   6.587  -0.005   4.876 -0.5879 -0.1229 -0.0886
  200TFSI   O0C28797   6.508  -0.055   4.568 -0.3389  0.5174  0.2268
  200TFSI   O0D28798   6.614   0.158   4.484  0.2200 -0.4997  0.3796
  200TFSI   O0E28799   6.947  -0.051   4.767  0.2959 -0.1767  0.4685
  200TFSI   O0F28800   6.755  -0.207   4.719 -0.3188  0.0768  0.1356
  201TFSI   N0128801   0.595   5.618   3.425  0.6179  0.4739 -0.7181
  201TFSI   S0228802   0.512   5.667   3.556  0.1631 -0.4461 -0.6599
  201TFSI   S0328803   0.708   5.504   3.436 -0.6086  0.5414  0.4155
  201TFSI   C0428804   0.860   5.618   3.462 -0.3415 -0.2767  0.0065
  201TFSI   C0528805   0.393   5.515   3.585  1.0077 -0.2100 -0.1527
  201TFSI   F0628806   0.349   5.508   3.710 -0.0431  0.1828  0.0804
  201TFSI   F0728807   0.446   5.398   3.551 -0.3786  0.4177  0.0983
  201TFSI   F0828808   0.291   5.520   3.496  0.1096  0.0161  0.1494
  201TFSI   F0928809   0.895   5.659   3.342 -0.1499 -0.3153 -0.3038
  201TFSI   F0A28810   0.848   5.727   3.536 -0.2016 -0.1293  0.6522
  201TFSI   F0B28811   0.975   5.562   3.502  0.4803 -0.2232 -0.4826
  201TFSI   O0C28812   0.594   5.674   3.679  0.1605 -0.0783  0.8395
  201TFSI   O0D28813   0.428   5.790   3.537 -0.0579  0.5891  0.0641
  201TFSI   O0E28814   0.727   5.437   3.308 -0.1541 -0.1716 -0.7039
  201TFSI   O0F28815   0.720   5.426   3.564 -0.2846  0.0782  0.1738
  202TFSI   N0128816   1.450   6.069   6.490  0.3627 -0.2132 -0.1995
  202TFSI   S0228817   1.524   5.936   6.443 -0.2038 -0.4816  0.6698
  202TFSI   S0328818   1.514   6.194   6.561 -0.0411  0.1301 -0.2394
  202TFSI   C0428819   1.644   6.259   6.435 -0.7603  0.4842 -0.5246
  202TFSI   C0528820   1.666   5.879   6.558 -0.7578 -0.3378  0.6338
  202TFSI   F0628821   1.625   5.862   6.685  0.2324 -0.0190 -0.2460
  202TFSI   F0728822   1.770   5.955   6.566 -0.7773 -0.4595 -0.1238
  202TFSI   F0828823   1.717   5.762   6.510  0.3636 -0.2230 -0.5249
  202TFSI   F0928824   1.772   6.202   6.447  0.2516  0.0043  0.4273
  202TFSI   F0A28825   1.612   6.238   6.308  0.3587 -0.0693 -0.4859
  202TFSI   F0B28826   1.665   6.386   6.455  0.4798 -0.5315  0.5070
  202TFSI   O0C28827   1.444   5.820   6.414  0.4185 -0.3004 -0.0710
  202TFSI   O0D28828   1.595   5.972   6.322  0.0894  1.0589 -0.3445
  202TFSI   O0E28829   1.607   6.149   6.669 -0.0453 -0.1081  0.4663
  202TFSI   O0F28830   1.424   6.298   6.586 -0.1194  0.1457 -0.8934
  203TFSI   N0128831   2.216   2.681   1.726  0.0308  0.1157  0.1797
  203TFSI   S0228832   2.214   2.693   1.570 -0.5138 -0.4665  0.1198
  203TFSI   S0328833   2.305   2.578   1.810  0.2235  0.4340 -0.3370
  203TFSI   C0428834   2.215   2.408   1.780  0.1832 -0.6773 -0.0798
  203TFSI   C0528835   2.338   2.845   1.545  0.9375  0.1469 -0.0900
  203TFSI   F0628836   2.293   2.938   1.636 -0.1706 -0.4367  0.4467
  203TFSI   F0728837   2.343   2.909   1.431 -0.2947  0.7348 -0.2811
  203TFSI   F0828838   2.467   2.819   1.569 -0.0077  0.5554  0.2026
  203TFSI   F0928839   2.082   2.420   1.762  0.3867  0.1342  0.1355
  203TFSI   F0A28840   2.264   2.349   1.676 -0.5053 -0.0388 -0.3189
  203TFSI   F0B28841   2.224   2.330   1.882 -0.1360 -0.4707 -0.3989
  203TFSI   O0C28842   2.270   2.586   1.489 -0.0033  0.0730 -0.1580
  203TFSI   O0D28843   2.091   2.750   1.528  0.0528  0.1879 -0.4161
  203TFSI   O0E28844   2.286   2.603   1.951 -0.0637  0.3395 -0.1895
  203TFSI   O0F28845   2.437   2.543   1.759 -0.2894  0.1059 -0.1100
  204TFSI   N0128846   0.484   0.208   3.174 -0.3298 -0.1372 -0.2276
  204TFSI   S0228847   0.527   0.087   3.268  0.0793  0.1488  0.0923
  204TFSI   S0328848   0.336   0.259   3.139 -0.1551  0.4840 -0.1028
  204TFSI   C0428849   0.284   0.127   3.008  0.3969 -1.1607 -0.0892
  204TFSI   C0528850   0.514   0.178   3.440 -1.1080  0.2514 -0.3622
  204TFSI   F0628851   0.585   0.297   3.441  0.3487 -0.2230  0.4839
  204TFSI   F0728852   0.581   0.109   3.533  0.6651 -0.0526  0.3698
  204TFSI   F0828853   0.386   0.192   3.475 -0.2899 -0.6318  0.3989
  204TFSI   F0928854   0.267   0.003   3.065 -0.6226 -0.1527 -0.4437
  204TFSI   F0A28855   0.169   0.158   2.944 -0.5631 -0.4696 -0.1710
  204TFSI   F0B28856   0.386   0.118   2.924  0.1951 -0.7487 -0.5861
  204TFSI   O0C28857   0.435  -0.025   3.287  0.4878 -0.9200 -0.1823
  204TFSI   O0D28858   0.670   0.068   3.247  0.2134 -0.1327  0.2556
  204TFSI   O0E28859   0.343   0.379   3.063 -0.0443 -0.5256 -0.1578
  204TFSI   O0F28860   0.237   0.241   3.244 -0.1954  0.2251  0.2416
  205TFSI   N0128861   2.563   6.059   1.580 -0.2902 -0.8091  0.3047
  205TFSI   S0228862   2.673   6.139   1.496  0.4849  0.6275 -0.3682
  205TFSI   S0328863   2.495   5.922   1.543  0.3077 -0.3271 -0.2651
  205TFSI   C0428864   2.355   5.984   1.422 -0.7216  0.5809 -0.3130
  205TFSI   C0528865   2.841   6.091   1.565 -0.8531 -1.3823 -0.0542
  205TFSI   F0628866   2.946   6.170   1.519 -0.0593  0.5946  0.8947
  205TFSI   F0728867   2.872   5.964   1.555 -0.2063  0.2633 -0.0530
  205TFSI   F0828868   2.852   6.115   1.698  0.1123 -0.0315 -0.5492
  205TFSI   F0928869   2.391   6.079   1.333 -0.0852 -0.3822 -0.5036
  205TFSI   F0A28870   2.317   5.883   1.350 -0.0499  0.5723 -0.4081
  205TFSI   F0B28871   2.248   6.028   1.483  0.5062 -0.1097  0.1180
  205TFSI   O0C28872   2.694   6.114   1.350 -0.1851  0.4969 -0.3118
  205TFSI   O0D28873   2.648   6.278   1.535 -0.1781  0.6746  0.7017
  205TFSI   O0E28874   2.407   5.874   1.646  0.5368  0.2702 -0.6056
  205TFSI   O0F28875   2.567   5.830   1.464 -0.1616  0.0386 -0.1127
  206TFSI   N0128876   6.081   5.387   6.083  0.3134 -0.2177  0.1776
  206TFSI   S0228877   5.940   5.372   6.144  0.3863  0.3925 -0.3092
  206TFSI   S0328878   6.128   5.522   6.009 -0.2998  0.2430 -0.0065
  206TFSI   C0428879   6.068   5.488   5.834  0.4619  0.6356  0.2667
  206TFSI   C0528880   5.954   5.465   6.314  0.2232  0.0523 -0.6861
  206TFSI   F0628881   5.983   5.589   6.311 -0.1699 -0.2205 -0.7832
  206TFSI   F0728882   6.064   5.411   6.369  0.1085 -0.1375  0.4489
  206TFSI   F0828883   5.841   5.449   6.385 -0.2324  0.0872 -0.3215
  206TFSI   F0928884   6.080   5.356   5.801  0.0018  0.1874  0.3058
  206TFSI   F0A28885   5.936   5.517   5.822 -0.2421  0.1283  0.1964
  206TFSI   F0B28886   6.121   5.566   5.735  0.5610  0.4283  0.2490
  206TFSI   O0C28887   5.818   5.426   6.081 -0.3268 -0.1640  0.0125
  206TFSI   O0D28888   5.930   5.235   6.193 -0.0815 -0.5490  0.0340
  206TFSI   O0E28889   6.271   5.513   5.991 -0.0677 -0.2549 -0.9515
  206TFSI   O0F28890   6.059   5.646   6.048 -0.3754  0.1348  0.1825
  207TFSI   N0128891   3.681   4.294   4.215 -0.0342  0.3065 -0.0112
  207TFSI   S0228892   3.676   4.203   4.085 -0.1247  0.6313  0.1291
  207TFSI   S0328893   3.731   4.449   4.219 -0.4740  0.3634  0.0114
  207TFSI   C0428894   3.918   4.431   4.229  0.3540  0.6221  0.1499
  207TFSI   C0528895   3.476   4.222   4.042 -0.5118 -0.4276 -0.1767
  207TFSI   F0628896   3.448   4.151   3.930  0.4266 -0.3110 -0.4162
  207TFSI   F0728897   3.446   4.339   4.012  0.3945 -0.3166 -0.0950
  207TFSI   F0828898   3.392   4.195   4.144 -0.5292 -0.2491 -0.0899
  207TFSI   F0928899   3.965   4.397   4.104  0.4743  0.7327 -0.2071
  207TFSI   F0A28900   3.976   4.550   4.264 -0.3187  0.0536  0.0747
  207TFSI   F0B28901   3.952   4.323   4.310  0.2666  0.1847 -0.2186
  207TFSI   O0C28902   3.729   4.246   3.961  0.4112 -0.5873 -0.3775
  207TFSI   O0D28903   3.672   4.064   4.115 -0.2415  0.6675 -0.1909
  207TFSI   O0E28904   3.681   4.502   4.344 -0.4537 -0.3218 -0.6545
  207TFSI   O0F28905   3.713   4.528   4.097  0.6452  0.2682  0.2194
  208TFSI   N0128906   0.722   4.939   5.708  0.1119  0.0967  0.0158
  208TFSI   S0228907   0.600   5.030   5.665  0.0948  0.3351 -0.1246
  208TFSI   S0328908   0.724   4.784   5.749 -0.2251 -0.0212 -0.1718
  208TFSI   C0428909   0.618   4.698   5.620  0.0518 -0.4253 -0.3037
  208TFSI   C0528910   0.488   5.039   5.817  0.8015 -1.0461 -0.1072
  208TFSI   F0628911   0.409   5.143   5.786  0.6265  0.7245  0.3329
  208TFSI   F0728912   0.549   5.061   5.932  0.0058 -0.2787 -0.6248
  208TFSI   F0828913   0.411   4.936   5.848  0.1060  0.8402  0.0659
  208TFSI   F0928914   0.637   4.566   5.631  0.2444 -0.0840  0.2464
  208TFSI   F0A28915   0.488   4.714   5.639 -0.2622 -0.4388 -0.0314
  208TFSI   F0B28916   0.654   4.736   5.495 -0.2889 -0.6496  0.1242
  208TFSI   O0C28917   0.624   5.174   5.641  0.1186 -0.2062 -0.2439
  208TFSI   O0D28918   0.504   4.964   5.575 -0.6219 -0.3072  0.0504
  208TFSI   O0E28919   0.645   4.762   5.870  0.9604 -0.3176 -0.0656
  208TFSI   O0F28920   0.854   4.708   5.751 -0.0800  0.1156  1.2380
  209TFSI   N0128921   1.249   6.742   6.099  0.2188  0.9928 -0.7104
  209TFSI   S0228922   1.370   6.800   6.003 -0.2074 -0.0942 -0.1873
  209TFSI   S0328923   1.285   6.691   6.243  0.2191  0.2406 -0.1010
  209TFSI   C0428924   1.368   6.520   6.215  0.5243  0.7441 -0.4439
  209TFSI   C0528925   1.371   6.978   6.058  0.3108 -0.1350 -0.1609
  209TFSI   F0628926   1.444   7.049   5.971 -0.1787  0.2516 -0.3968
  209TFSI   F0728927   1.437   6.999   6.175  0.3346 -0.3645 -0.4205
  209TFSI   F0828928   1.244   7.025   6.073 -0.3811  0.6024  0.7963
  209TFSI   F0928929   1.496   6.527   6.169 -0.2874  0.0902  0.1747
  209TFSI   F0A28930   1.382   6.457   6.333  0.1323  0.3475 -1.0755
  209TFSI   F0B28931   1.292   6.434   6.146  0.0300 -0.2455 -0.1977
  209TFSI   O0C28932   1.504   6.755   6.033 -0.1900 -0.0262 -0.2277
  209TFSI   O0D28933   1.323   6.797   5.863 -0.0635  0.8028  0.2347
  209TFSI   O0E28934   1.156   6.668   6.313  0.2774 -0.5793 -0.1940
  209TFSI   O0F28935   1.393   6.768   6.311  0.0862  1.3346 -0.8500
  210TFSI   N0128936   6.710   5.533   3.292  0.0069 -0.5360 -0.2578
  210TFSI   S0228937   6.742   5.493   3.141 -0.2646 -0.0751 -0.1210
  210TFSI   S0328938   6.664   5.430   3.408 -0.5587  0.6077 -0.4296
  210TFSI   C0428939   6.479   5.405   3.359 -0.2514 -0.3974 -0.1339
  210TFSI   C0528940   6.934   5.471   3.148  0.0284 -0.4274  0.1067
  210TFSI   F0628941   6.984   5.460   3.026 -0.0465 -0.3809  0.0154
  210TFSI   F0728942   6.972   5.366   3.219 -0.2853  0.7681 -0.8896
  210TFSI   F0828943   7.004   5.576   3.201  0.1368  0.4070 -0.0700
  210TFSI   F0928944   6.403   5.515   3.374  0.0205  0.3654  0.3158
  210TFSI   F0A28945   6.466   5.353   3.237 -0.6407  0.1345 -0.3229
  210TFSI   F0B28946   6.422   5.311   3.436  0.5921  0.9207 -0.1741
  210TFSI   O0C28947   6.701   5.367   3.085  0.5304 -0.1131 -0.3668
  210TFSI   O0D28948   6.717   5.611   3.059 -0.6498  0.4820 -0.0217
  210TFSI   O0E28949   6.679   5.502   3.537 -1.0624 -0.1986 -0.2096
  210TFSI   O0F28950   6.727   5.295   3.397 -0.0411 -0.3392  0.3051
  211TFSI   N0128951   5.775   5.603   0.901 -0.5855  0.7154 -0.1812
  211TFSI   S0228952   5.625   5.614   0.950 -0.2640  0.2574 -0.1828
  211TFSI   S0328953   5.827   5.510   0.777  0.5026  0.3002 -0.1368
  211TFSI   C0428954   5.763   5.593   0.616 -0.0108 -0.1290  0.0690
  211TFSI   C0528955   5.639   5.488   1.096  0.9588 -0.3009  0.0425
  211TFSI   F0628956   5.656   5.358   1.054 -0.1429 -0.6152  0.0287
  211TFSI   F0728957   5.532   5.486   1.179 -0.3611  0.2316  0.0027
  211TFSI   F0828958   5.739   5.520   1.181  0.3548 -0.9084  1.0424
  211TFSI   F0928959   5.634   5.574   0.583  0.0305  0.5893  0.0245
  211TFSI   F0A28960   5.776   5.722   0.614 -0.3868 -0.3477 -0.1838
  211TFSI   F0B28961   5.843   5.549   0.514  0.1394 -0.1355 -0.0771
  211TFSI   O0C28962   5.585   5.732   1.027  0.3761 -0.5304 -0.1772
  211TFSI   O0D28963   5.529   5.550   0.856 -0.0258 -0.1631  0.5168
  211TFSI   O0E28964   5.762   5.378   0.766  0.4524 -0.4918 -0.7909
  211TFSI   O0F28965   5.969   5.508   0.768 -0.2808  0.8845 -0.3086
  212TFSI   N0128966   6.559   3.176   2.863 -0.3914 -0.0969  0.1628
  212TFSI   S0228967   6.701   3.147   2.928  0.5252  0.0342  0.2494
  212TFSI   S0328968   6.442   3.072   2.875  0.4719 -0.3330  0.1752
  212TFSI   C0428969   6.459   2.976   2.712 -0.0835 -0.6503 -0.5916
  212TFSI   C0528970   6.678   3.221   3.105  0.0146  0.0208 -0.0070
  212TFSI   F0628971   6.598   3.142   3.175  0.2221  0.4189 -0.3180
  212TFSI   F0728972   6.637   3.348   3.116  0.3130  0.3590 -0.1372
  212TFSI   F0828973   6.805   3.209   3.162  0.1540  0.3260 -0.4945
  212TFSI   F0928974   6.351   2.904   2.687  0.4414 -0.2104 -0.3129
  212TFSI   F0A28975   6.460   3.058   2.608  0.1231  0.3317  0.0512
  212TFSI   F0B28976   6.569   2.909   2.714 -0.3704  0.3056 -0.1934
  212TFSI   O0C28977   6.755   3.013   2.950  0.4028  0.2517  0.6880
  212TFSI   O0D28978   6.791   3.241   2.865 -0.0965 -0.9462  0.1610
  212TFSI   O0E28979   6.310   3.137   2.851  0.1308 -0.0355  0.5262
  212TFSI   O0F28980   6.450   2.964   2.973  0.2073 -1.4214  0.9623
  213TFSI   N0128981   1.222   0.272   4.209 -0.4684 -0.0881 -0.8347
  213TFSI   S0228982   1.194   0.264   4.051 -0.3431 -0.3139  0.1255
  213TFSI   S0328983   1.241   0.141   4.293 -0.0408 -0.1403  0.5368
  213TFSI   C0428984   1.074   0.056   4.302  0.1395 -0.5423 -0.3537
  213TFSI   C0528985   1.354   0.324   3.970 -0.2231  0.0641 -0.4336
  213TFSI   F0628986   1.451   0.234   3.965  0.3609 -0.0863  0.0158
  213TFSI   F0728987   1.405   0.436   4.024 -0.0786  0.1260  0.2498
  213TFSI   F0828988   1.332   0.342   3.842  0.0491 -0.0327  0.2963
  213TFSI   F0928989   1.025   0.024   4.187  0.1346  0.0435 -0.4041
  213TFSI   F0A28990   1.078  -0.051   4.384 -0.1769 -0.3481 -0.2292
  213TFSI   F0B28991   0.979   0.130   4.357  0.8635 -0.2426  0.5478
  213TFSI   O0C28992   1.183   0.137   3.991 -0.5581 -0.4875  0.2247
  213TFSI   O0D28993   1.114   0.379   4.019 -0.6534  0.1909  0.3580
  213TFSI   O0E28994   1.266   0.182   4.430  0.7013 -0.3019 -0.3613
  213TFSI   O0F28995   1.311   0.035   4.230 -0.1283  0.2183 -0.4772
  214TFSI   N0128996   5.849   0.022   6.223  0.8162 -1.0756 -0.0723
  214TFSI   S0228997   5.841  -0.138   6.221  0.0144  0.2741  0.0685
  214TFSI   S0328998   5.738   0.110   6.299 -0.4826  0.3355 -0.3426
  214TFSI   C0428999   5.608   0.118   6.148 -0.0775 -1.1239 -0.1611
  214TFSI   C0529000   5.931  -0.171   6.396 -0.0064  0.1398 -0.1292
  214TFSI   F0629001   6.042  -0.096   6.402  0.2583 -0.0506 -0.0579
  214TFSI   F0729002   5.978  -0.296   6.409  0.0660  0.1026  0.4017
  214TFSI   F0829003   5.847  -0.151   6.504  0.1570  0.6529  0.1807
  214TFSI   F0929004   5.560   0.002   6.113 -0.2112  0.0162  0.1842
  214TFSI   F0A29005   5.509   0.205   6.176 -0.4027 -0.3016  0.0254
  214TFSI   F0B29006   5.653   0.165   6.024  0.2234 -0.6833  0.1894
  214TFSI   O0C29007   5.714  -0.204   6.232  1.1916  0.9826 -0.9442
  214TFSI   O0D29008   5.947  -0.184   6.129 -0.2557  0.4590 -0.0531
  214TFSI   O0E29009   5.780   0.251   6.313 -0.0229  0.4171 -0.3294
  214TFSI   O0F29010   5.655   0.055   6.406  0.2342 -0.3085  0.0092
  215TFSI   N0129011   6.304   3.952   5.978  0.1999  0.1157 -0.2139
  215TFSI   S0229012   6.408   4.077   5.971 -0.6299  0.2145  0.0136
  215TFSI   S0329013   6.339   3.799   5.954 -0.1364  0.1218 -0.3354
  215TFSI   C0429014   6.433   3.754   6.116  0.2881  0.1656 -0.3517
  215TFSI   C0529015   6.417   4.112   5.783 -0.1303 -0.1522  0.2022
  215TFSI   F0629016   6.477   4.230   5.756 -0.2021 -0.1531  0.2432
  215TFSI   F0729017   6.299   4.110   5.718 -0.8383  0.1317  0.4717
  215TFSI   F0829018   6.498   4.022   5.728 -0.3565 -0.1372 -0.2213
  215TFSI   F0929019   6.463   3.626   6.123 -0.0609 -0.6907 -0.7631
  215TFSI   F0A29020   6.551   3.820   6.131 -0.2251 -0.0391 -0.2717
  215TFSI   F0B29021   6.353   3.770   6.219 -0.1863 -0.2475  0.1700
  215TFSI   O0C29022   6.352   4.200   6.030  0.1895 -0.2477  0.1798
  215TFSI   O0D29023   6.540   4.044   6.006 -0.4188 -0.1204  0.1008
  215TFSI   O0E29024   6.447   3.795   5.861  0.0450 -0.5934 -0.0129
  215TFSI   O0F29025   6.222   3.711   5.942  0.7661  0.6847 -0.6592
  216TFSI   N0129026   2.111   5.602   4.781 -0.8287  0.3076  1.0421
  216TFSI   S0229027   2.021   5.661   4.660 -0.1720  0.1794 -0.3571
  216TFSI   S0329028   2.216   5.698   4.852 -0.1242  0.1008  0.6345
  216TFSI   C0429029   2.365   5.679   4.734 -0.3322 -0.5018  0.1777
  216TFSI   C0529030   1.869   5.746   4.735  0.3310  0.4031  0.4667
  216TFSI   F0629031   1.903   5.848   4.808 -0.4642  0.0772  0.4185
  216TFSI   F0729032   1.812   5.667   4.820  0.4426 -0.1944 -0.1308
  216TFSI   F0829033   1.777   5.772   4.638 -0.3307  0.3863 -0.2214
  216TFSI   F0929034   2.487   5.694   4.791  0.9736  0.0380  0.3445
  216TFSI   F0A29035   2.361   5.554   4.680 -0.2815 -0.3908  0.1841
  216TFSI   F0B29036   2.359   5.768   4.632 -0.7973 -0.2827 -0.4252
  216TFSI   O0C29037   2.073   5.763   4.574  0.1089  0.1181 -0.0774
  216TFSI   O0D29038   1.961   5.545   4.590 -0.4475 -0.4714 -0.7813
  216TFSI   O0E29039   2.255   5.647   4.984 -0.5931 -0.2883  1.0127
  216TFSI   O0F29040   2.191   5.846   4.847  0.2142  0.1387 -0.0670
  217TFSI   N0129041   0.548   5.756   5.781 -0.1778 -0.5422  0.4151
  217TFSI   S0229042   0.528   5.598   5.803  0.3957 -0.5010 -0.3033
  217TFSI   S0329043   0.464   5.866   5.868 -0.2264  0.3041  0.2610
  217TFSI   C0429044   0.302   5.876   5.755  0.6840  0.3597  0.1528
  217TFSI   C0529045   0.651   5.558   5.939 -0.3361  0.7552 -0.4146
  217TFSI   F0629046   0.592   5.592   6.059  1.0868  0.0424 -0.2252
  217TFSI   F0729047   0.767   5.630   5.930  0.0938 -0.3766 -0.2060
  217TFSI   F0829048   0.685   5.425   5.960  0.6467  0.5498  0.3301
  217TFSI   F0929049   0.312   5.975   5.664 -0.0482  0.2411  0.4123
  217TFSI   F0A29050   0.271   5.758   5.699  0.5351  0.3698  0.4231
  217TFSI   F0B29051   0.189   5.922   5.829 -0.0283  0.6302  0.1852
  217TFSI   O0C29052   0.407   5.544   5.855  0.1736  0.1037  0.1576
  217TFSI   O0D29053   0.606   5.537   5.696  0.0872 -0.2930 -0.1869
  217TFSI   O0E29054   0.526   5.999   5.846 -0.4910 -0.0111 -0.3473
  217TFSI   O0F29055   0.413   5.827   5.995  0.2494  0.9380  0.7582
  218TFSI   N0129056   5.368   5.021   5.347 -0.4515  0.8856 -0.4749
  218TFSI   S0229057   5.363   5.172   5.293  0.6112  0.3431 -0.0454
  218TFSI   S0329058   5.437   4.983   5.488  0.4899 -0.2276  0.1769
  218TFSI   C0429059   5.613   4.954   5.430  0.8832  0.0533  0.0795
  218TFSI   C0529060   5.191   5.230   5.348  0.0310 -0.5257  0.9944
  218TFSI   F0629061   5.193   5.216   5.479  0.2669 -0.2753  0.1158
  218TFSI   F0729062   5.092   5.166   5.288 -0.1120  0.9873 -0.6613
  218TFSI   F0829063   5.173   5.359   5.322  0.3477 -0.4387  0.4216
  218TFSI   F0929064   5.611   4.850   5.340 -0.5599 -0.1657 -0.0717
  218TFSI   F0A29065   5.673   5.068   5.374  0.5431 -0.1660  0.0799
  218TFSI   F0B29066   5.702   4.900   5.522 -0.1200 -0.4415  0.4138
  218TFSI   O0C29067   5.457   5.269   5.342 -0.6959 -0.2610  0.0958
  218TFSI   O0D29068   5.343   5.163   5.150 -0.3286 -0.0215  0.2710
  218TFSI   O0E29069   5.381   4.849   5.502 -0.3687  0.2259 -0.5923
  218TFSI   O0F29070   5.444   5.089   5.584  0.2368 -0.6302 -0.6397
  219TFSI   N0129071   2.279   6.054   0.064 -0.6689 -0.3079  0.2321
  219TFSI   S0229072   2.266   5.941  -0.045  0.2674  0.0200 -0.5247
  219TFSI   S0329073   2.341   6.190   0.021 -0.0724 -0.0119  0.0330
  219TFSI   C0429074   2.502   6.209   0.129 -0.0397 -0.2470  0.2111
  219TFSI   C0529075   2.103   6.003  -0.128 -0.0511 -0.1066  0.2055
  219TFSI   F0629076   2.124   6.122  -0.192  0.3089  0.7492 -0.0987
  219TFSI   F0729077   1.996   6.035  -0.046 -0.0803 -0.2675 -0.0308
  219TFSI   F0829078   2.049   5.911  -0.224 -0.2649 -0.0219 -0.4639
  219TFSI   F0929079   2.493   6.150   0.248 -1.1011  0.2586  0.2688
  219TFSI   F0A29080   2.592   6.140   0.056  0.0253  0.2353  0.1975
  219TFSI   F0B29081   2.544   6.341   0.138 -0.2977  0.2025  0.0852
  219TFSI   O0C29082   2.356   5.921  -0.154 -0.0586  0.8046  1.2136
  219TFSI   O0D29083   2.230   5.823   0.029 -0.5250  0.5455  0.1640
  219TFSI   O0E29084   2.254   6.293   0.082 -0.2562 -0.4014 -0.0676
  219TFSI   O0F29085   2.390   6.210  -0.113  0.4474 -0.0003 -0.5834
  220TFSI   N0129086   0.087   1.362   3.547  0.2743 -0.6662  0.6246
  220TFSI   S0229087   0.069   1.415   3.402 -0.0855 -0.1915 -0.0539
  220TFSI   S0329088   0.221   1.363   3.631 -0.4443  0.0311  0.4114
  220TFSI   C0429089   0.284   1.180   3.603  0.9010  0.1143  0.2381
  220TFSI   C0529090   0.068   1.602   3.437 -0.2171  1.1098  0.2156
  220TFSI   F0629091   0.186   1.656   3.453  0.1100 -0.6635 -0.4165
  220TFSI   F0729092   0.004   1.631   3.547 -0.4117 -0.5066  0.4863
  220TFSI   F0829093   0.013   1.664   3.332  0.0765  0.1947 -0.2770
  220TFSI   F0929094   0.404   1.161   3.666 -0.2794 -0.2638  0.1361
  220TFSI   F0A29095   0.197   1.088   3.652 -0.2464 -0.1306 -0.0980
  220TFSI   F0B29096   0.297   1.143   3.479 -0.6833  0.1830 -0.0072
  220TFSI   O0C29097   0.173   1.418   3.301  0.1835 -0.0628  0.8534
  220TFSI   O0D29098  -0.068   1.379   3.360  0.1039  0.5509 -0.0105
  220TFSI   O0E29099   0.202   1.371   3.774 -0.2716  0.0796 -0.3051
  220TFSI   O0F29100   0.330   1.425   3.560  0.0821 -0.6424  0.0945
  221TFSI   N0129101   6.462   4.340   5.194 -0.1509  0.0348 -0.3174
  221TFSI   S0229102   6.587   4.307   5.289  0.0058  0.0813  0.0094
  221TFSI   S0329103   6.341   4.429   5.232 -0.3565 -0.1729 -0.0033
  221TFSI   C0429104   6.239   4.336   5.368 -0.4080 -0.0517 -1.0111
  221TFSI   C0529105   6.726   4.409   5.214 -0.7877 -0.4063 -0.2555
  221TFSI   F0629106   6.742   4.392   5.084 -0.3352 -0.8721 -0.2367
  221TFSI   F0729107   6.841   4.387   5.274 -0.5742 -0.1241  0.5083
  221TFSI   F0829108   6.701   4.543   5.228 -0.0743 -0.1434  0.5173
  221TFSI   F0929109   6.234   4.205   5.342  0.1744  0.1930  0.7946
  221TFSI   F0A29110   6.283   4.357   5.494 -0.3488 -0.1641  0.0108
  221TFSI   F0B29111   6.111   4.369   5.362 -0.2845  0.1094  0.0987
  221TFSI   O0C29112   6.587   4.335   5.432  0.1079 -0.0393  0.8175
  221TFSI   O0D29113   6.631   4.181   5.225 -1.0280  0.2923 -0.1711
  221TFSI   O0E29114   6.255   4.434   5.117  0.1142 -0.5723  0.6304
  221TFSI   O0F29115   6.371   4.554   5.304 -0.0357 -0.5233 -0.9415
  222TFSI   N0129116   3.071   6.267   5.809 -0.2952 -0.5015  0.2370
  222TFSI   S0229117   3.114   6.403   5.738  0.2546 -0.3765 -0.2913
  222TFSI   S0329118   3.034   6.139   5.726  0.3655 -0.6529  0.1651
  222TFSI   C0429119   2.846   6.176   5.677 -0.9872 -0.6304 -0.2014
  222TFSI   C0529120   3.295   6.411   5.760  0.0995  0.3141  0.0433
  222TFSI   F0629121   3.337   6.385   5.889 -0.1986  0.7062 -0.4661
  222TFSI   F0729122   3.347   6.530   5.732  0.0466 -0.1190 -0.1345
  222TFSI   F0829123   3.366   6.340   5.670 -0.2298 -0.1923 -0.7280
  222TFSI   F0929124   2.801   6.086   5.597 -0.3739 -0.8563  0.5861
  222TFSI   F0A29125   2.759   6.188   5.785  0.1543  0.0142  0.0270
  222TFSI   F0B29126   2.834   6.286   5.602 -0.0607 -0.1102 -0.1079
  222TFSI   O0C29127   3.088   6.438   5.600  0.1140  0.1058  0.1530
  222TFSI   O0D29128   3.085   6.506   5.837  0.3883 -1.0202 -0.0294
  222TFSI   O0E29129   3.014   6.031   5.823 -0.1438 -0.0621  0.4739
  222TFSI   O0F29130   3.094   6.108   5.595  0.4121 -0.0706 -0.2763
  223TFSI   N0129131   4.277   1.224   4.622  0.0219  0.1070 -0.4658
  223TFSI   S0229132   4.326   1.079   4.666 -0.5558  0.1295  0.4618
  223TFSI   S0329133   4.353   1.318   4.519 -0.4425  0.0982 -0.2278
  223TFSI   C0429134   4.501   1.384   4.620 -0.3662 -0.1865  0.2059
  223TFSI   C0529135   4.255   0.962   4.532 -0.2580  0.1871  1.2797
  223TFSI   F0629136   4.133   1.006   4.495  0.5906 -0.2129  0.3565
  223TFSI   F0729137   4.237   0.838   4.571  0.1279  0.5891 -0.0978
  223TFSI   F0829138   4.328   0.963   4.417 -0.0040 -0.1878  0.2521
  223TFSI   F0929139   4.587   1.285   4.656  0.1189  0.8048 -0.2456
  223TFSI   F0A29140   4.575   1.461   4.537  0.4171  0.3367  0.1054
  223TFSI   F0B29141   4.477   1.452   4.733  0.3542 -0.3042 -0.0645
  223TFSI   O0C29142   4.469   1.049   4.667  0.2471  0.7913 -0.3088
  223TFSI   O0D29143   4.246   1.052   4.787  1.0222  0.0220 -0.6557
  223TFSI   O0E29144   4.274   1.435   4.494  0.8241 -1.4666  0.1087
  223TFSI   O0F29145   4.423   1.254   4.412 -0.4183  0.0720  0.7153
  224TFSI   N0129146   5.490   6.276   5.743  0.4231  0.2030  0.6795
  224TFSI   S0229147   5.479   6.143   5.655 -0.0227  0.2588  0.2573
  224TFSI   S0329148   5.607   6.380   5.754 -0.3994  0.2017  0.3391
  224TFSI   C0429149   5.741   6.309   5.875 -0.0839  0.6066  1.2695
  224TFSI   C0529150   5.427   6.229   5.481 -0.4997  0.4153 -0.3211
  224TFSI   F0629151   5.384   6.133   5.403  1.0364  0.5967 -0.2406
  224TFSI   F0729152   5.519   6.286   5.406  0.0885 -0.4909 -0.4889
  224TFSI   F0829153   5.323   6.311   5.494  0.2736 -0.3189 -0.0974
  224TFSI   F0929154   5.782   6.185   5.834 -0.3418  0.0358  0.4361
  224TFSI   F0A29155   5.846   6.392   5.870  0.1013  0.4578 -0.3171
  224TFSI   F0B29156   5.710   6.307   6.003 -0.3262 -0.8987  0.3184
  224TFSI   O0C29157   5.606   6.084   5.614  0.1704  0.0738 -0.1811
  224TFSI   O0D29158   5.377   6.056   5.701  0.3716 -0.4202 -0.9677
  224TFSI   O0E29159   5.554   6.497   5.823 -0.1656 -0.0144 -0.5413
  224TFSI   O0F29160   5.695   6.395   5.632  0.4676  0.2520 -0.8368
  225TFSI   N0129161   6.725   4.037   1.552 -0.7474 -0.0846 -0.4193
  225TFSI   S0229162   6.820   4.150   1.606  0.5268 -0.2780  0.3713
  225TFSI   S0329163   6.627   4.053   1.430 -0.0967  0.7733  0.0530
  225TFSI   C0429164   6.470   4.126   1.491 -0.1052 -0.4923 -0.0373
  225TFSI   C0529165   6.974   4.170   1.480  0.2500 -0.4372  0.1693
  225TFSI   F0629166   7.086   4.218   1.541  0.1393  0.4871  0.4717
  225TFSI   F0729167   6.946   4.253   1.373 -0.3264 -1.1095 -0.2781
  225TFSI   F0829168   7.002   4.053   1.429  0.1360  0.1302  0.1911
  225TFSI   F0929169   6.388   4.106   1.393  0.3354  0.1599  0.2589
  225TFSI   F0A29170   6.433   4.060   1.600  0.6678 -0.1321  0.6355
  225TFSI   F0B29171   6.469   4.261   1.518 -0.0434 -0.3734 -0.5819
  225TFSI   O0C29172   6.756   4.280   1.612 -0.1000 -0.2538  0.2982
  225TFSI   O0D29173   6.879   4.109   1.727 -0.2639  0.1182 -0.2177
  225TFSI   O0E29174   6.595   3.916   1.382  0.3902  0.3461  0.7411
  225TFSI   O0F29175   6.673   4.134   1.320 -0.0593  0.5403  0.5568
  226TFSI   N0129176   4.236   6.601   3.249  0.0601 -0.1870  0.4749
  226TFSI   S0229177   4.213   6.491   3.140  0.0907 -0.3440  0.0193
  226TFSI   S0329178   4.231   6.761   3.209 -0.4838  0.2604  0.2084
  226TFSI   C0429179   4.415   6.814   3.231  0.8831 -0.3839 -0.5231
  226TFSI   C0529180   4.028   6.492   3.136 -0.1268  0.1325 -0.1589
  226TFSI   F0629181   3.980   6.588   3.063  0.1096  0.1561  0.2645
  226TFSI   F0729182   3.961   6.496   3.257 -0.7469 -0.1571 -0.6912
  226TFSI   F0829183   3.991   6.378   3.082 -0.0921 -0.5248  0.0150
  226TFSI   F0929184   4.471   6.789   3.353 -0.2251  0.2600  0.0853
  226TFSI   F0A29185   4.490   6.754   3.140 -0.1495  0.0582  0.4569
  226TFSI   F0B29186   4.430   6.945   3.206 -0.2893 -0.2941 -0.2746
  226TFSI   O0C29187   4.251   6.523   3.003 -0.8000 -0.1489  0.4496
  226TFSI   O0D29188   4.238   6.365   3.206  0.5545 -0.2004 -0.2362
  226TFSI   O0E29189   4.165   6.829   3.322 -0.3097  0.4105  0.1224
  226TFSI   O0F29190   4.178   6.803   3.077 -0.6876 -0.4999  0.0443
  227TFSI   N0129191   2.457   0.507   5.976 -1.0002 -1.3228 -0.1402
  227TFSI   S0229192   2.349   0.401   6.021  0.1788 -0.3117 -0.2329
  227TFSI   S0329193   2.497   0.525   5.823  0.6394 -0.2137  0.4406
  227TFSI   C0429194   2.613   0.384   5.787  0.0361 -0.2983  0.1352
  227TFSI   C0529195   2.177   0.481   6.011  0.1702 -0.0799 -0.1431
  227TFSI   F0629196   2.079   0.386   6.007  0.0770 -0.4215  0.1494
  227TFSI   F0729197   2.168   0.535   5.892  0.4552  0.7112 -0.3700
  227TFSI   F0829198   2.144   0.579   6.095 -0.5289 -0.5209  0.1173
  227TFSI   F0929199   2.723   0.380   5.857 -0.1534  0.0594 -0.0073
  227TFSI   F0A29200   2.560   0.270   5.807  0.5765  0.2430  0.2814
  227TFSI   F0B29201   2.659   0.397   5.659  0.0142 -0.5201 -0.1475
  227TFSI   O0C29202   2.330   0.281   5.946 -0.2525 -0.2178 -0.1183
  227TFSI   O0D29203   2.370   0.382   6.166  1.0531  0.2563 -0.5235
  227TFSI   O0E29204   2.573   0.648   5.822  0.8733 -0.3664 -0.2604
  227TFSI   O0F29205   2.387   0.503   5.724 -0.2586  0.5499  0.1862
  228TFSI   N0129206   2.743   4.784   1.189  0.6423 -0.2327  0.7953
  228TFSI   S0229207   2.867   4.884   1.233  0.1539 -0.2679  0.2001
  228TFSI   S0329208   2.595   4.830   1.149 -0.3978 -0.4005  0.1191
  228TFSI   C0429209   2.617   4.902   0.970 -0.5995 -0.1720 -0.3283
  228TFSI   C0529210   2.854   4.926   1.422 -0.4524  0.5882 -0.0626
  228TFSI   F0629211   2.968   4.986   1.462 -0.0684 -0.0228 -0.1720
  228TFSI   F0729212   2.835   4.816   1.498 -0.3471  0.0393  0.6861
  228TFSI   F0829213   2.754   5.012   1.452 -0.3805 -0.2021  0.2556
  228TFSI   F0929214   2.715   4.992   0.974 -0.0533 -0.1020  0.1282
  228TFSI   F0A29215   2.635   4.801   0.885 -0.3009 -0.4477 -0.1701
  228TFSI   F0B29216   2.507   4.962   0.939 -0.5191  0.4644  0.1067
  228TFSI   O0C29217   2.995   4.817   1.228  0.5823  0.6326 -0.2183
  228TFSI   O0D29218   2.856   5.021   1.188  0.4344 -0.7575  0.2790
  228TFSI   O0E29219   2.551   4.950   1.226 -0.1941  0.1020 -0.2995
  228TFSI   O0F29220   2.501   4.720   1.128 -0.8520 -0.4262 -0.4212
  229TFSI   N0129221   1.232   5.949   5.692 -0.6536 -0.3298 -0.0973
  229TFSI   S0229222   1.266   5.896   5.547 -0.2998  0.3210 -0.2723
  229TFSI   S0329223   1.126   5.878   5.789 -0.1560 -0.2793  0.4976
  229TFSI   C0429224   0.970   5.943   5.718  0.8561  0.4048 -0.4446
  229TFSI   C0529225   1.403   5.763   5.566 -0.4366 -0.1861  0.6504
  229TFSI   F0629226   1.460   5.741   5.443  0.5322 -0.0411 -0.0710
  229TFSI   F0729227   1.370   5.646   5.619 -0.5707 -0.0606 -0.2229
  229TFSI   F0829228   1.503   5.815   5.648  0.0144 -0.0872 -0.0725
  229TFSI   F0929229   0.867   5.907   5.798 -0.1243  0.2091 -0.3750
  229TFSI   F0A29230   0.978   6.074   5.708 -0.2165  0.2394 -0.1377
  229TFSI   F0B29231   0.948   5.891   5.593  0.1160  0.1110 -0.2498
  229TFSI   O0C29232   1.174   5.811   5.470  0.1201 -0.0541  0.2345
  229TFSI   O0D29233   1.360   5.999   5.502 -0.1653  0.4427 -0.2124
  229TFSI   O0E29234   1.121   5.946   5.924 -0.7551 -0.1891  0.1552
  229TFSI   O0F29235   1.108   5.733   5.763 -0.4877  0.0925 -0.1312
  230TFSI   N0129236   0.513   5.772   4.542 -0.4655  0.3289 -0.1277
  230TFSI   S0229237   0.646   5.813   4.611 -0.1734  0.1189 -0.1222
  230TFSI   S0329238   0.513   5.702   4.408 -0.1262  0.1973  0.5963
  230TFSI   C0429239   0.465   5.846   4.301 -0.2181 -0.0665 -0.3667
  230TFSI   C0529240   0.707   5.649   4.705  0.1583 -0.7448  0.8855
  230TFSI   F0629241   0.741   5.552   4.615 -0.0269 -0.3798 -1.0913
  230TFSI   F0729242   0.613   5.598   4.777 -0.3417  0.0094 -0.3375
  230TFSI   F0829243   0.799   5.660   4.796  0.0324  0.2766  0.2141
  230TFSI   F0929244   0.436   5.805   4.177 -0.3301  0.7008  0.1762
  230TFSI   F0A29245   0.349   5.897   4.349  0.4565 -0.1024 -0.4838
  230TFSI   F0B29246   0.559   5.942   4.299 -0.2629  0.3241 -0.0677
  230TFSI   O0C29247   0.760   5.856   4.536  0.3718 -0.0441  0.4074
  230TFSI   O0D29248   0.608   5.899   4.727 -0.0158  1.3164 -0.6480
  230TFSI   O0E29249   0.392   5.625   4.404 -0.2777 -0.0863  0.2228
  230TFSI   O0F29250   0.634   5.655   4.346 -0.0694 -0.1273  0.6302
  231TFSI   N0129251   5.223   5.444   0.129  0.6213  0.5949 -0.3027
  231TFSI   S0229252   5.247   5.284   0.130  0.3092  0.1474  0.0618
  231TFSI   S0329253   5.176   5.506  -0.003  0.5144 -0.2670 -0.6350
  231TFSI   C0429254   5.337   5.568  -0.089  0.4048 -0.4282  0.4040
  231TFSI   C0529255   5.085   5.223   0.227  0.3605 -0.3645 -0.1440
  231TFSI   F0629256   4.967   5.269   0.177  0.2407  0.1705  0.4486
  231TFSI   F0729257   5.090   5.273   0.353  0.3406  0.5442  0.4797
  231TFSI   F0829258   5.084   5.094   0.246 -0.0576  0.8528 -0.0709
  231TFSI   F0929259   5.396   5.660  -0.009 -0.5968  0.3843 -0.1100
  231TFSI   F0A29260   5.425   5.464  -0.114  0.3248  0.0408 -0.0938
  231TFSI   F0B29261   5.298   5.620  -0.206 -0.7127  0.1926 -0.4173
  231TFSI   O0C29262   5.252   5.200   0.010  0.6615 -0.2225  0.1094
  231TFSI   O0D29263   5.351   5.267   0.231 -0.0694 -0.0027  0.0570
  231TFSI   O0E29264   5.121   5.638   0.020 -0.0304  0.2294  0.2005
  231TFSI   O0F29265   5.114   5.418  -0.103  0.1367  0.1938 -0.8902
  232TFSI   N0129266   5.182   5.779   5.637 -0.0456  0.2120 -0.1973
  232TFSI   S0229267   5.148   5.674   5.753 -0.1216 -0.0121  0.1762
  232TFSI   S0329268   5.253   5.750   5.494 -0.0141  0.2928 -0.4823
  232TFSI   C0429269   5.407   5.639   5.532  0.2698 -0.1917  0.0134
  232TFSI   C0529270   5.001   5.575   5.685  0.0586 -0.2799  0.3124
  232TFSI   F0629271   4.932   5.530   5.791  0.2749  0.1435  0.3642
  232TFSI   F0729272   5.033   5.475   5.601 -0.2402  0.7493 -0.0028
  232TFSI   F0829273   4.921   5.660   5.612 -0.4950 -0.1955 -0.0641
  232TFSI   F0929274   5.508   5.668   5.447 -0.1895  0.3850 -0.0121
  232TFSI   F0A29275   5.465   5.658   5.652 -0.0888 -0.1145  0.5857
  232TFSI   F0B29276   5.381   5.501   5.518  0.8026  0.2233 -0.2967
  232TFSI   O0C29277   5.238   5.571   5.808  0.0603  0.1186  0.0554
  232TFSI   O0D29278   5.084   5.754   5.863  0.0334  0.1079  0.9936
  232TFSI   O0E29279   5.308   5.872   5.461  0.0037 -0.4776 -0.2579
  232TFSI   O0F29280   5.181   5.676   5.391 -0.1572  0.8347 -0.2721
  233TFSI   N0129281   5.160   0.396   5.930 -0.2993  0.4108 -0.2736
  233TFSI   S0229282   5.289   0.476   5.886  0.4404 -0.1709  0.0773
  233TFSI   S0329283   5.022   0.376   5.853  0.4411 -0.4132  0.4748
  233TFSI   C0429284   4.903   0.459   5.982 -0.1045 -0.5026 -0.2757
  233TFSI   C0529285   5.386   0.346   5.777  0.5345  0.0638 -0.2877
  233TFSI   F0629286   5.321   0.323   5.662  0.0617  0.1014 -0.4790
  233TFSI   F0729287   5.389   0.230   5.836 -0.0885  0.3747 -0.2747
  233TFSI   F0829288   5.509   0.380   5.748 -0.2393  0.3413 -0.1389
  233TFSI   F0929289   4.904   0.417   6.110  0.1878 -0.2193  0.1434
  233TFSI   F0A29290   4.915   0.591   5.994 -0.1276  0.7811 -0.0069
  233TFSI   F0B29291   4.777   0.448   5.951 -0.0769  0.5985  0.0313
  233TFSI   O0C29292   5.273   0.581   5.791 -0.1196 -0.1574 -0.2967
  233TFSI   O0D29293   5.365   0.496   6.011  0.2316  0.1687  0.1907
  233TFSI   O0E29294   4.968   0.243   5.873  0.2308 -0.1441  0.3263
  233TFSI   O0F29295   4.983   0.436   5.726  0.4709 -0.1532  0.3107
  234TFSI   N0129296   5.646   4.362   2.979 -0.2057 -0.9786  0.0142
  234TFSI   S0229297   5.712   4.421   2.848  0.1398  0.4280 -0.2265
  234TFSI   S0329298   5.563   4.461   3.084 -0.0857 -0.0177  0.2383
  234TFSI   C0429299   5.690   4.507   3.207  0.4038 -1.0153 -0.5904
  234TFSI   C0529300   5.572   4.386   2.716  0.1145  0.3647 -0.5163
  234TFSI   F0629301   5.571   4.247   2.699  0.4775  0.0753 -0.0368
  234TFSI   F0729302   5.588   4.449   2.601 -0.4926 -0.1024 -0.0569
  234TFSI   F0829303   5.455   4.414   2.767 -0.6638  0.2545 -0.5286
  234TFSI   F0929304   5.642   4.592   3.299 -0.0828 -0.0611 -0.1413
  234TFSI   F0A29305   5.745   4.398   3.262  0.2049 -0.4546  0.7211
  234TFSI   F0B29306   5.791   4.570   3.141  0.2002  0.1029  0.0107
  234TFSI   O0C29307   5.747   4.561   2.847 -0.8940  0.0733  0.1158
  234TFSI   O0D29308   5.823   4.335   2.797 -0.3366  0.6801 -0.4533
  234TFSI   O0E29309   5.478   4.372   3.163  0.5411  0.0078  0.6625
  234TFSI   O0F29310   5.503   4.579   3.043  0.3727  0.5502  0.0582
  235TFSI   N0129311   4.311   3.985   6.748 -0.9602 -0.5344  0.2812
  235TFSI   S0229312   4.314   4.097   6.857 -0.1727  0.3407 -0.1710
  235TFSI   S0329313   4.431   3.964   6.641  0.4471 -0.3185 -0.2363
  235TFSI   C0429314   4.373   4.092   6.504  0.8628 -0.5120 -0.3753
  235TFSI   C0529315   4.408   4.007   7.000 -0.9135 -0.2905  0.1339
  235TFSI   F0629316   4.426   4.071   7.118  0.1225 -0.3204  0.2225
  235TFSI   F0729317   4.539   3.979   6.961  0.3212  0.1378  0.4135
  235TFSI   F0829318   4.348   3.892   7.045 -0.8587  0.5343  0.8821
  235TFSI   F0929319   4.291   4.043   6.408  0.3713  0.1595 -0.3674
  235TFSI   F0A29320   4.315   4.210   6.555  0.2168 -0.1399  0.3171
  235TFSI   F0B29321   4.477   4.140   6.437  0.3886  0.1481 -0.0465
  235TFSI   O0C29322   4.392   4.213   6.833 -0.3439 -0.6789 -0.3294
  235TFSI   O0D29323   4.177   4.116   6.902 -0.0934 -0.3010  0.0542
  235TFSI   O0E29324   4.412   3.839   6.576  0.2496  1.1021 -0.9273
  235TFSI   O0F29325   4.571   4.002   6.666  0.9306  0.8966 -0.1602
  236TFSI   N0129326   3.685   4.843   6.188 -1.3648  0.5111  0.1419
  236TFSI   S0229327   3.748   4.904   6.049 -0.3167 -0.1128  0.2692
  236TFSI   S0329328   3.618   4.703   6.205  0.4587 -0.1550 -0.3534
  236TFSI   C0429329   3.454   4.745   6.135  1.2637  0.1959 -0.5509
  236TFSI   C0529330   3.896   4.793   6.007  0.2994 -0.1521 -0.3237
  236TFSI   F0629331   3.866   4.669   5.960  0.0215  0.0244  0.2483
  236TFSI   F0729332   3.966   4.772   6.119  0.0084  0.3289 -0.0467
  236TFSI   F0829333   3.980   4.850   5.916 -0.1138  0.3556  0.2000
  236TFSI   F0929334   3.420   4.870   6.164  0.0048 -0.3749  0.2425
  236TFSI   F0A29335   3.447   4.725   6.006 -0.5038 -0.1023 -0.0453
  236TFSI   F0B29336   3.350   4.676   6.180  0.3013  0.2193 -0.2348
  236TFSI   O0C29337   3.662   4.887   5.932 -0.1526 -0.1466  0.2907
  236TFSI   O0D29338   3.801   5.034   6.081  0.6631 -0.1240  0.3514
  236TFSI   O0E29339   3.584   4.690   6.341 -0.6356 -0.5272  0.2819
  236TFSI   O0F29340   3.668   4.592   6.132  0.2549  0.1888  0.2335
  237TFSI   N0129341   5.987   0.221   4.708  0.0903 -0.1707  0.2547
  237TFSI   S0229342   5.882   0.115   4.766 -0.0388  0.1557  0.3860
  237TFSI   S0329343   5.984   0.374   4.752  0.3755  0.2878  0.3514
  237TFSI   C0429344   5.833   0.445   4.633 -0.1907 -0.0614 -0.2322
  237TFSI   C0529345   5.964   0.077   4.938 -0.0285  0.0206 -0.8519
  237TFSI   F0629346   5.956  -0.053   4.973 -0.6433  0.1478 -0.1030
  237TFSI   F0729347   5.913   0.146   5.045 -0.4099  0.0296 -0.5606
  237TFSI   F0829348   6.097   0.086   4.936 -0.0160 -0.1541  0.0220
  237TFSI   F0929349   5.841   0.576   4.614 -0.0111  0.3600 -0.1991
  237TFSI   F0A29350   5.827   0.403   4.510 -0.2806 -0.3231 -0.2383
  237TFSI   F0B29351   5.714   0.435   4.688 -0.2617  0.3093  0.1731
  237TFSI   O0C29352   5.752   0.161   4.809 -0.1723  0.6553  0.2174
  237TFSI   O0D29353   5.894  -0.008   4.692  0.3069 -0.0928  0.9670
  237TFSI   O0E29354   6.099   0.436   4.700 -0.9292 -0.3918 -0.3731
  237TFSI   O0F29355   5.942   0.404   4.885  0.2384  0.4693  0.6176
  238TFSI   N0129356   2.901   3.329   2.486  0.6631  0.0514 -0.2153
  238TFSI   S0229357   2.783   3.389   2.589 -0.2785  0.3496 -0.3615
  238TFSI   S0329358   2.878   3.282   2.339 -0.0939  0.2050  0.4548
  238TFSI   C0429359   2.935   3.436   2.256  0.8604  0.1051 -0.0668
  238TFSI   C0529360   2.718   3.222   2.651  0.5211  0.3966  0.2629
  238TFSI   F0629361   2.738   3.212   2.779  0.2754 -0.6147 -0.4568
  238TFSI   F0729362   2.763   3.109   2.602  0.7228  0.0430 -0.3923
  238TFSI   F0829363   2.583   3.217   2.639 -0.4079  0.0977 -0.1927
  238TFSI   F0929364   2.874   3.556   2.308  0.0327  0.0980 -0.1873
  238TFSI   F0A29365   3.067   3.454   2.261  0.1936 -0.0344  0.1372
  238TFSI   F0B29366   2.907   3.436   2.130  0.3065 -0.1464  0.1586
  238TFSI   O0C29367   2.833   3.437   2.712  0.2120 -0.1370  0.5314
  238TFSI   O0D29368   2.670   3.451   2.525 -0.5883  0.5928  0.5551
  238TFSI   O0E29369   2.742   3.262   2.315  0.6100 -0.1532  0.3099
  238TFSI   O0F29370   2.975   3.183   2.306  0.1289 -0.3559 -0.1518
  239TFSI   N0129371   0.077   0.352   1.030 -0.0084 -0.7421 -0.8263
  239TFSI   S0229372   0.000   0.352   0.895 -0.4158  0.2542  0.3435
  239TFSI   S0329373   0.199   0.260   1.074  0.3241  0.2466 -0.4244
  239TFSI   C0429374   0.104   0.111   1.141  0.5551 -0.3972 -0.2235
  239TFSI   C0529375   0.123   0.407   0.750  0.3728  0.1439  0.1350
  239TFSI   F0629376   0.196   0.520   0.780 -0.2976 -0.2798 -0.4982
  239TFSI   F0729377   0.064   0.435   0.639  0.1966  0.3397 -0.2773
  239TFSI   F0829378   0.202   0.306   0.716 -0.5046  0.4760 -0.8023
  239TFSI   F0929379   0.087   0.129   1.275 -0.4411  0.2314  0.4127
  239TFSI   F0A29380  -0.015   0.088   1.086  0.4046  0.1560  0.4297
  239TFSI   F0B29381   0.179   0.004   1.146 -0.4003 -0.2820  1.0452
  239TFSI   O0C29382  -0.063   0.235   0.846  0.0663 -0.3287 -0.3710
  239TFSI   O0D29383  -0.084   0.468   0.901  0.2675 -0.1069 -0.0403
  239TFSI   O0E29384   0.270   0.323   1.190 -0.1634  0.0526  0.4780
  239TFSI   O0F29385   0.287   0.204   0.973  0.2308  0.3946  0.6483
  240TFSI   N0129386   2.720   3.052   4.442  0.6091 -0.1366 -0.9491
  240TFSI   S0229387   2.759   2.895   4.454  0.0573 -0.0226 -0.0753
  240TFSI   S0329388   2.808   3.149   4.356 -0.4170 -0.6249 -0.1237
  240TFSI   C0429389   2.936   3.204   4.497 -0.4075  0.5811 -0.5373
  240TFSI   C0529390   2.644   2.815   4.326  0.3803  0.5130  0.2843
  240TFSI   F0629391   2.676   2.688   4.319  0.7108 -0.0319 -0.2932
  240TFSI   F0729392   2.660   2.866   4.204  0.2894  0.1461  0.2700
  240TFSI   F0829393   2.515   2.812   4.353  0.5083 -0.6557 -0.0928
  240TFSI   F0929394   3.041   3.267   4.446  0.2037  0.0949  0.2362
  240TFSI   F0A29395   2.876   3.286   4.582 -0.0235 -0.1855 -0.3824
  240TFSI   F0B29396   2.989   3.095   4.558 -0.0869  0.7321  0.5631
  240TFSI   O0C29397   2.892   2.848   4.430 -0.1330  0.2000  0.1507
  240TFSI   O0D29398   2.693   2.843   4.577  0.6616  0.1315 -0.6212
  240TFSI   O0E29399   2.742   3.274   4.332 -0.9278 -0.7550 -0.1831
  240TFSI   O0F29400   2.895   3.098   4.260  0.7289  0.5696  0.1626
  241TFSI   N0129401   5.681   6.340   0.890  0.2366  0.0485  0.2428
  241TFSI   S0229402   5.794   6.273   0.810  0.1858  0.5091 -0.0014
  241TFSI   S0329403   5.620   6.478   0.856  0.1982 -0.0220  0.3805
  241TFSI   C0429404   5.716   6.594   0.981 -0.2247  0.0812  0.7731
  241TFSI   C0529405   5.708   6.196   0.655 -0.2769 -0.3462  0.9886
  241TFSI   F0629406   5.794   6.131   0.578  0.1806 -0.2015 -0.0189
  241TFSI   F0729407   5.643   6.295   0.584 -0.4117 -0.3702 -0.1236
  241TFSI   F0829408   5.614   6.112   0.694  0.1006  0.1033  0.9692
  241TFSI   F0929409   5.651   6.612   1.101 -0.3336  0.1984 -0.0406
  241TFSI   F0A29410   5.836   6.546   1.002 -0.4167 -0.0242 -0.8319
  241TFSI   F0B29411   5.729   6.714   0.914 -0.1868  0.1225 -0.2894
  241TFSI   O0C29412   5.895   6.358   0.750  0.1570 -0.0246  0.1038
  241TFSI   O0D29413   5.835   6.151   0.879  0.3721 -0.2441 -0.2696
  241TFSI   O0E29414   5.485   6.475   0.903 -0.4550  0.2624  0.1514
  241TFSI   O0F29415   5.648   6.549   0.729  0.0676  0.2149  0.2978
  242TFSI   N0129416   6.717   1.243   0.209  0.5650  0.0888 -0.1554
  242TFSI   S0229417   6.768   1.324   0.337 -0.0011  0.3248  0.3541
  242TFSI   S0329418   6.606   1.132   0.203  0.1827 -0.3441  0.2235
  242TFSI   C0429419   6.686   0.962   0.201 -0.8837  0.2386  0.4463
  242TFSI   C0529420   6.658   1.487   0.331 -0.5088 -0.3225 -0.2289
  242TFSI   F0629421   6.537   1.466   0.300  0.2088  0.0420 -0.1031
  242TFSI   F0729422   6.718   1.574   0.255 -0.2252  0.1332 -0.2578
  242TFSI   F0829423   6.649   1.547   0.449  0.1399  0.1123 -0.5426
  242TFSI   F0929424   6.767   0.938   0.092  0.0376 -0.1527 -0.1754
  242TFSI   F0A29425   6.768   0.950   0.312 -0.3229  1.0022  0.1445
  242TFSI   F0B29426   6.590   0.860   0.198 -0.3809 -0.2415  0.1304
  242TFSI   O0C29427   6.769   1.260   0.468 -0.1338  0.0105  0.1937
  242TFSI   O0D29428   6.897   1.389   0.302 -0.2469  0.7491  0.7865
  242TFSI   O0E29429   6.558   1.136   0.067  0.1973  0.5411  0.5943
  242TFSI   O0F29430   6.514   1.133   0.317 -0.3952  0.3825  0.5766
  243TFSI   N0129431   5.719   0.323   2.365  0.0955 -0.6705  0.0906
  243TFSI   S0229432   5.871   0.347   2.304  0.1259  0.4517 -0.1352
  243TFSI   S0329433   5.592   0.415   2.320  0.0128 -0.3976 -0.2549
  243TFSI   C0429434   5.519   0.313   2.172 -0.3737  0.2695 -0.6030
  243TFSI   C0529435   5.930   0.503   2.404  0.2333 -0.0395  0.0776
  243TFSI   F0629436   6.030   0.565   2.334  0.2744 -0.4124 -0.6358
  243TFSI   F0729437   5.969   0.480   2.534  0.9935 -0.3322 -0.3010
  243TFSI   F0829438   5.830   0.593   2.410  0.2939  0.2655  0.3409
  243TFSI   F0929439   5.588   0.313   2.066 -0.1604  0.1943  0.9969
  243TFSI   F0A29440   5.512   0.180   2.216 -0.7777  0.0671  0.1273
  243TFSI   F0B29441   5.388   0.338   2.142 -0.1541  0.5736  0.5978
  243TFSI   O0C29442   5.975   0.250   2.337  0.7158 -0.0103  0.1167
  243TFSI   O0D29443   5.861   0.406   2.169 -0.0095 -0.2866  0.2794
  243TFSI   O0E29444   5.622   0.543   2.263 -0.6991  0.2179  0.3265
  243TFSI   O0F29445   5.472   0.410   2.399  0.1157 -0.5372  0.3669
  244TFSI   N0129446   5.593   5.165   3.875  0.4415  0.4189 -0.5366
  244TFSI   S0229447   5.613   5.312   3.932 -0.0379 -0.0202 -0.1253
  244TFSI   S0329448   5.473   5.134   3.770  0.1262 -0.0875  0.0381
  244TFSI   C0429449   5.315   5.120   3.877  0.1096  0.7276 -0.6726
  244TFSI   C0529450   5.787   5.337   3.853 -0.4053 -0.9032  0.3241
  244TFSI   F0629451   5.797   5.341   3.717  0.0473  0.0948  0.2093
  244TFSI   F0729452   5.872   5.246   3.907 -0.6658 -0.3779 -0.3383
  244TFSI   F0829453   5.839   5.453   3.888 -0.0874  0.4130 -0.6620
  244TFSI   F0929454   5.215   5.060   3.815  0.4719  0.0869 -0.0681
  244TFSI   F0A29455   5.332   5.058   3.991  0.5494  0.5405  0.5297
  244TFSI   F0B29456   5.279   5.246   3.906 -0.1743 -0.1358 -0.1945
  244TFSI   O0C29457   5.528   5.414   3.886  1.1754 -1.0708  0.8157
  244TFSI   O0D29458   5.644   5.303   4.070  0.2479 -0.4182 -0.1451
  244TFSI   O0E29459   5.481   5.000   3.715 -0.4956 -0.1163  0.3931
  244TFSI   O0F29460   5.438   5.239   3.676 -0.0418 -0.0980 -0.3106
  245TFSI   N0129461   4.614   5.673   6.716 -0.3428  0.2207 -0.1625
  245TFSI   S0229462   4.490   5.763   6.746 -0.0197 -0.3456  0.0984
  245TFSI   S0329463   4.764   5.685   6.772 -0.4351  0.1134 -0.4737
  245TFSI   C0429464   4.846   5.849   6.704 -0.4060  0.3379  0.3789
  245TFSI   C0529465   4.462   5.746   6.936 -0.6225  0.2305  0.7152
  245TFSI   F0629466   4.497   5.621   6.974 -0.4953  0.3080  0.0926
  245TFSI   F0729467   4.333   5.771   6.967  0.0302  0.5093 -0.9316
  245TFSI   F0829468   4.541   5.837   6.993  0.2778 -0.1608  0.3293
  245TFSI   F0929469   4.961   5.887   6.766 -0.1951 -0.5927 -0.5042
  245TFSI   F0A29470   4.861   5.833   6.572 -0.4185  0.8142 -0.1213
  245TFSI   F0B29471   4.769   5.958   6.721 -0.3307 -0.4235 -0.3742
  245TFSI   O0C29472   4.501   5.905   6.746  0.2018 -0.0419  0.4138
  245TFSI   O0D29473   4.371   5.704   6.684 -0.3518  0.5078 -0.0881
  245TFSI   O0E29474   4.840   5.587   6.703  0.1717  0.2893 -0.2296
  245TFSI   O0F29475   4.782   5.705   6.915 -0.4430  0.3334  0.0396
  246TFSI   N0129476   4.511   0.543   2.680 -0.1587 -1.1265  0.0663
  246TFSI   S0229477   4.641   0.529   2.772  0.3616  0.0968  0.2909
  246TFSI   S0329478   4.495   0.493   2.532 -0.0937  0.0733  0.2562
  246TFSI   C0429479   4.543   0.641   2.418  0.0267  0.9772  0.4302
  246TFSI   C0529480   4.628   0.351   2.857 -1.0997 -0.3988  0.0414
  246TFSI   F0629481   4.605   0.261   2.763 -0.1389 -0.6641  0.0661
  246TFSI   F0729482   4.534   0.359   2.947  0.4104 -0.3148 -0.5589
  246TFSI   F0829483   4.736   0.310   2.926 -0.5288 -0.9266 -0.1322
  246TFSI   F0929484   4.674   0.671   2.429 -0.1435 -0.0848  0.3399
  246TFSI   F0A29485   4.503   0.607   2.289  0.0329  0.1560  0.1792
  246TFSI   F0B29486   4.470   0.751   2.447 -0.1888  0.3725  0.2222
  246TFSI   O0C29487   4.770   0.509   2.704 -0.2037 -0.3059 -0.3714
  246TFSI   O0D29488   4.633   0.631   2.883 -0.5198  0.3982 -0.0389
  246TFSI   O0E29489   4.352   0.473   2.508 -0.0004  0.3299 -0.5793
  246TFSI   O0F29490   4.587   0.392   2.489  0.6112 -0.1095 -0.5360
  247TFSI   N0129491   2.608   2.095   2.836 -0.1597  0.1382  0.5190
  247TFSI   S0229492   2.635   1.975   2.734  0.1346 -0.2367 -0.0531
  247TFSI   S0329493   2.501   2.209   2.812  0.4790 -0.0004  0.2228
  247TFSI   C0429494   2.562   2.302   2.660  0.5847 -0.0047  0.1051
  247TFSI   C0529495   2.522   1.839   2.818 -0.5279  0.5015  0.6403
  247TFSI   F0629496   2.425   1.889   2.898 -0.1925 -0.3185 -0.2802
  247TFSI   F0729497   2.596   1.757   2.900  0.4823  0.7520  0.2583
  247TFSI   F0829498   2.478   1.742   2.734  0.1533  0.1250  0.3178
  247TFSI   F0929499   2.549   2.224   2.551 -0.0821 -0.1802  0.0666
  247TFSI   F0A29500   2.473   2.406   2.643  0.3784  0.4120  0.4313
  247TFSI   F0B29501   2.687   2.351   2.682 -0.2875  0.1645  0.5717
  247TFSI   O0C29502   2.593   1.969   2.595 -0.3481 -0.3797  0.0278
  247TFSI   O0D29503   2.764   1.924   2.765 -0.0342  0.4280 -0.4527
  247TFSI   O0E29504   2.511   2.309   2.914 -0.0603  0.0485 -0.9889
  247TFSI   O0F29505   2.376   2.155   2.764  0.3117 -0.0357  0.2618
  248TFSI   N0129506   6.201   2.367   5.122  0.4012  0.5792  0.5839
  248TFSI   S0229507   6.122   2.501   5.108 -0.0704  0.0670 -0.1792
  248TFSI   S0329508   6.134   2.231   5.170 -0.0382  0.2859 -0.2810
  248TFSI   C0429509   6.225   2.194   5.333  0.3346 -0.8182  0.6642
  248TFSI   C0529510   6.032   2.491   4.937 -0.4843 -0.5414 -0.0620
  248TFSI   F0629511   5.942   2.392   4.940 -0.0630  0.1123  0.1858
  248TFSI   F0729512   6.116   2.467   4.839  0.2227  0.3002  0.2230
  248TFSI   F0829513   5.961   2.602   4.911 -0.5826  0.1670  0.3748
  248TFSI   F0929514   6.357   2.158   5.317  0.2840 -0.1831 -0.0213
  248TFSI   F0A29515   6.218   2.306   5.401  0.0646  0.0768 -0.0892
  248TFSI   F0B29516   6.168   2.098   5.405 -0.6097 -0.0909 -0.1376
  248TFSI   O0C29517   6.005   2.527   5.190 -0.7932  0.3792  0.2168
  248TFSI   O0D29518   6.221   2.614   5.095 -0.2274  0.8395 -0.7188
  248TFSI   O0E29519   6.194   2.128   5.090  0.5340  0.2234 -0.5966
  248TFSI   O0F29520   5.989   2.226   5.202 -0.3131  0.3775 -0.2163
  249TFSI   N0129521   0.153   4.897   5.041  0.6092  0.2918  0.5489
  249TFSI   S0229522   0.120   4.954   4.893 -0.2918  0.3202  0.1896
  249TFSI   S0329523   0.138   4.969   5.182 -0.2250  0.0282 -0.4174
  249TFSI   C0429524  -0.043   4.931   5.218  0.5981  0.8002 -1.1306
  249TFSI   C0529525   0.297   5.045   4.867  0.6000 -0.6855 -0.3478
  249TFSI   F0629526   0.317   5.149   4.958 -0.1713  0.7863  0.2240
  249TFSI   F0729527   0.315   5.104   4.748  0.5630  0.5117  0.2355
  249TFSI   F0829528   0.393   4.966   4.885 -0.3751  0.2702  0.0110
  249TFSI   F0929529  -0.066   4.943   5.352 -0.0886  0.6954  0.2241
  249TFSI   F0A29530  -0.129   5.005   5.147  0.5024  0.1003 -0.5353
  249TFSI   F0B29531  -0.084   4.806   5.188  0.2989  0.0134  0.0454
  249TFSI   O0C29532   0.116   4.855   4.790 -0.0923  0.4289 -0.0452
  249TFSI   O0D29533   0.030   5.066   4.897  0.6130 -0.9996  0.8671
  249TFSI   O0E29534   0.150   5.116   5.184 -0.3295 -0.8615 -0.1487
  249TFSI   O0F29535   0.212   4.892   5.282  0.2633 -0.0222  0.1134
  250TFSI   N0129536   1.499   6.179   5.097 -0.1855 -0.1119  0.6867
  250TFSI   S0229537   1.355   6.182   5.029 -0.6880 -0.3694 -0.6487
  250TFSI   S0329538   1.614   6.073   5.067  0.0918  0.6352 -0.0749
  250TFSI   C0429539   1.688   6.169   4.919  1.2976 -0.0393  0.0957
  250TFSI   C0529540   1.252   6.070   5.148  0.0949  0.3253  0.5465
  250TFSI   F0629541   1.140   6.030   5.083  0.6061  0.5803  0.2231
  250TFSI   F0729542   1.218   6.125   5.260  1.4908 -0.0451  0.5104
  250TFSI   F0829543   1.314   5.956   5.172 -0.7168  0.3741 -0.3821
  250TFSI   F0929544   1.806   6.125   4.887 -0.5864  0.3640  0.1172
  250TFSI   F0A29545   1.610   6.156   4.809 -0.1225  0.1018 -0.3120
  250TFSI   F0B29546   1.700   6.305   4.936 -0.6121 -0.2116  0.2159
  250TFSI   O0C29547   1.291   6.311   5.050 -0.0662  0.0787  0.4811
  250TFSI   O0D29548   1.343   6.120   4.899  0.7754  0.4683 -0.0757
  250TFSI   O0E29549   1.560   5.953   5.009  0.1423  0.1254 -0.6299
  250TFSI   O0F29550   1.709   6.067   5.175 -0.4025 -0.2971 -0.5260
  251TFSI   N0129551   2.933   5.365   6.273 -0.1142  0.3073 -0.0220
  251TFSI   S0229552   3.031   5.488   6.245 -0.2442  0.1357  0.2451
  251TFSI   S0329553   2.950   5.266   6.393  0.2411  0.2009 -0.1711
  251TFSI   C0429554   3.052   5.140   6.299 -0.0630  0.8754  0.1543
  251TFSI   C0529555   2.935   5.612   6.346  0.0620  0.1137  0.4311
  251TFSI   F0629556   2.808   5.629   6.293 -0.0708  0.0025  0.1559
  251TFSI   F0729557   2.996   5.732   6.347 -0.1640 -0.3853  0.2510
  251TFSI   F0829558   2.915   5.569   6.469  0.6266  0.5502 -0.9910
  251TFSI   F0929559   2.989   5.121   6.187  0.2217 -0.1833  0.3947
  251TFSI   F0A29560   3.179   5.181   6.277  0.3311 -0.4899 -0.5821
  251TFSI   F0B29561   3.041   5.017   6.359  0.5229 -0.0598 -0.5932
  251TFSI   O0C29562   3.159   5.493   6.314 -0.7121 -0.4343 -0.5184
  251TFSI   O0D29563   3.020   5.544   6.112 -0.5277  0.6333  0.2437
  251TFSI   O0E29564   2.815   5.205   6.418  0.6709 -0.3131 -0.6581
  251TFSI   O0F29565   3.029   5.290   6.514 -0.1539 -1.0221 -0.2709
  252TFSI   N0129566   2.667   6.750   5.324  0.0166 -0.1314  0.0244
  252TFSI   S0229567   2.641   6.874   5.231 -0.0358 -0.0717  0.3269
  252TFSI   S0329568   2.749   6.746   5.463 -0.1674  0.1633 -0.1753
  252TFSI   C0429569   2.921   6.706   5.393 -0.9033  0.5437  0.0081
  252TFSI   C0529570   2.466   6.920   5.288 -0.5244 -0.6277 -0.2881
  252TFSI   F0629571   2.439   7.034   5.228 -0.2663 -0.1801  0.7918
  252TFSI   F0729572   2.449   6.939   5.420  0.1399 -0.7548 -0.1116
  252TFSI   F0829573   2.376   6.834   5.237  0.0556 -0.0384 -0.8742
  252TFSI   F0929574   2.961   6.789   5.296 -0.2692 -0.4375  0.3151
  252TFSI   F0A29575   3.017   6.707   5.491  0.0709 -0.3935 -0.4601
  252TFSI   F0B29576   2.931   6.585   5.337  0.4832  0.5539 -0.0476
  252TFSI   O0C29577   2.725   6.992   5.239  0.2775 -0.2824  0.2929
  252TFSI   O0D29578   2.619   6.826   5.094  0.6954 -0.0492 -0.4564
  252TFSI   O0E29579   2.715   6.626   5.535  0.3633  0.4555  0.0338
  252TFSI   O0F29580   2.777   6.867   5.533 -0.2264 -0.5203 -0.7020
  253TFSI   N0129581   0.647   4.734   0.053 -0.7240  0.2143 -0.4391
  253TFSI   S0229582   0.609   4.853  -0.043  0.3355 -0.1848  0.5815
  253TFSI   S0329583   0.549   4.680   0.164 -0.3395 -0.8311 -0.0441
  253TFSI   C0429584   0.610   4.792   0.311 -0.3070  0.2909  0.2372
  253TFSI   C0529585   0.509   4.751  -0.178 -0.5824  0.1555  0.7019
  253TFSI   F0629586   0.576   4.640  -0.191 -0.1271 -0.7608  0.4348
  253TFSI   F0729587   0.504   4.803  -0.295 -0.0140 -0.3935  0.0175
  253TFSI   F0829588   0.387   4.715  -0.140  0.5325  0.0340  0.1387
  253TFSI   F0929589   0.569   4.916   0.295  0.3052 -0.0152  0.0160
  253TFSI   F0A29590   0.556   4.744   0.425 -0.4713  0.5214 -1.1691
  253TFSI   F0B29591   0.744   4.796   0.326  0.5471 -0.8247  0.5933
  253TFSI   O0C29592   0.517   4.952   0.009  0.4181 -0.6294 -0.2130
  253TFSI   O0D29593   0.716   4.896  -0.125  0.1705  0.1433 -0.2541
  253TFSI   O0E29594   0.599   4.551   0.206 -0.0375 -0.4384  0.1599
  253TFSI   O0F29595   0.410   4.703   0.160  0.4375 -0.2770 -0.4211
  254TFSI   N0129596   4.465   3.373   5.136 -0.1343 -0.8600  0.3625
  254TFSI   S0229597   4.345   3.264   5.134  0.1335  0.1106  0.0846
  254TFSI   S0329598   4.481   3.506   5.232 -0.2792 -0.1345  0.4682
  254TFSI   C0429599   4.336   3.611   5.171 -0.4003 -0.0985  1.0043
  254TFSI   C0529600   4.395   3.160   5.286  0.9215  0.4826 -0.5406
  254TFSI   F0629601   4.421   3.241   5.379 -0.0190  0.2918 -0.2039
  254TFSI   F0729602   4.513   3.103   5.267 -0.1873  0.2308 -0.2892
  254TFSI   F0829603   4.310   3.069   5.326  0.0354  0.2162  0.2452
  254TFSI   F0929604   4.317   3.605   5.040 -0.0955 -0.3802  0.0008
  254TFSI   F0A29605   4.221   3.596   5.235  0.0932 -0.3711  0.2749
  254TFSI   F0B29606   4.370   3.744   5.192  0.8121 -0.8889 -0.4592
  254TFSI   O0C29607   4.216   3.308   5.168  0.0878 -1.1421 -0.0097
  254TFSI   O0D29608   4.368   3.171   5.027 -0.2984  0.1745 -0.2423
  254TFSI   O0E29609   4.604   3.575   5.196  0.0200 -0.0396  0.7581
  254TFSI   O0F29610   4.447   3.506   5.372 -0.0608  0.6488  0.3607
  255TFSI   N0129611   0.162   6.081   0.097 -0.0419  0.1709  0.2709
  255TFSI   S0229612   0.046   5.978   0.071  0.0045  0.0899  0.1312
  255TFSI   S0329613   0.315   6.048   0.082 -0.1261 -0.4373 -0.1831
  255TFSI   C0429614   0.370   5.961   0.245  0.3761  0.3275  0.0651
  255TFSI   C0529615  -0.010   6.000  -0.105 -0.1071 -0.7010  0.0546
  255TFSI   F0629616  -0.090   5.904  -0.130 -0.4012 -0.4140  0.4698
  255TFSI   F0729617   0.097   5.993  -0.184  0.1284  0.2354  0.3577
  255TFSI   F0829618  -0.074   6.119  -0.111 -0.5532  0.2914 -0.4228
  255TFSI   F0929619   0.315   5.843   0.246  0.2421  1.3726 -0.1942
  255TFSI   F0A29620   0.500   5.939   0.266 -0.3070  0.4078 -0.3153
  255TFSI   F0B29621   0.331   6.018   0.354  0.7224  0.1114 -0.3944
  255TFSI   O0C29622   0.083   5.838   0.088  0.5233 -0.4560  0.2135
  255TFSI   O0D29623  -0.066   6.031   0.146 -0.0886 -0.0944 -0.1014
  255TFSI   O0E29624   0.382   6.179   0.100 -0.2504 -0.3780 -0.0492
  255TFSI   O0F29625   0.354   5.944  -0.012 -0.3321 -0.4990  0.3037
  256TFSI   N0129626   0.711   6.434   4.890  0.0785  0.1603 -0.4714
  256TFSI   S0229627   0.687   6.473   5.042  0.1850 -0.3018  0.2159
  256TFSI   S0329628   0.708   6.284   4.841  0.3187  0.2190 -0.4419
  256TFSI   C0429629   0.880   6.219   4.889  0.4660  0.1339  0.8711
  256TFSI   C0529630   0.501   6.442   5.064  0.3324 -0.2236  0.1068
  256TFSI   F0629631   0.447   6.435   4.942  0.1479 -0.0138 -0.6245
  256TFSI   F0729632   0.440   6.542   5.125  0.0014  0.7471  0.1946
  256TFSI   F0829633   0.474   6.322   5.133  0.3910 -0.2542  0.2100
  256TFSI   F0929634   0.979   6.308   4.862  0.7796 -0.1959 -0.2845
  256TFSI   F0A29635   0.889   6.197   5.020  0.2357  0.6807  0.7909
  256TFSI   F0B29636   0.905   6.096   4.837  0.3534  0.4464  0.1599
  256TFSI   O0C29637   0.737   6.394   5.146 -0.5575  0.4818  0.1935
  256TFSI   O0D29638   0.700   6.621   5.039  0.0064 -0.1994 -0.1935
  256TFSI   O0E29639   0.690   6.306   4.699 -0.5377  0.8169  0.8572
  256TFSI   O0F29640   0.622   6.193   4.905  0.0671  0.4546 -0.2548
  257TFSI   N0129641   4.490   6.090   0.471  0.6559  0.0148 -0.2231
  257TFSI   S0229642   4.355   6.172   0.506 -0.2284  0.0915 -0.2459
  257TFSI   S0329643   4.529   5.961   0.549  0.0044 -0.1918 -0.0074
  257TFSI   C0429644   4.630   6.029   0.695  0.1880  0.5042  0.6179
  257TFSI   C0529645   4.221   6.060   0.414  0.2219  0.0490 -0.4565
  257TFSI   F0629646   4.260   6.042   0.288  0.7160  0.2433 -0.0650
  257TFSI   F0729647   4.100   6.119   0.415  0.0555  0.9771 -0.2912
  257TFSI   F0829648   4.211   5.931   0.457 -0.3584 -0.9339  0.1344
  257TFSI   F0929649   4.695   5.941   0.764 -0.1974  0.6140 -0.1832
  257TFSI   F0A29650   4.710   6.122   0.642 -0.1728 -0.2749 -0.2931
  257TFSI   F0B29651   4.546   6.089   0.775 -0.4972 -0.3838  0.5991
  257TFSI   O0C29652   4.309   6.162   0.647 -0.0191  0.0223  1.0729
  257TFSI   O0D29653   4.351   6.304   0.451  0.2442 -0.1003 -0.1124
  257TFSI   O0E29654   4.640   5.891   0.492  0.6501 -0.1704  0.0313
  257TFSI   O0F29655   4.425   5.883   0.616  0.1640 -0.0424  0.1652
  258TFSI   N0129656   0.901   0.326   0.567 -0.1592 -0.2300 -0.1141
  258TFSI   S0229657   0.883   0.254   0.711 -0.4996  0.0897  0.1761
  258TFSI   S0329658   0.832   0.265   0.434  0.1261  0.6558 -0.1808
  258TFSI   C0429659   0.965   0.146   0.365  0.3640 -0.5349  0.8991
  258TFSI   C0529660   0.708   0.296   0.779 -0.4022 -0.4492 -0.0520
  258TFSI   F0629661   0.674   0.209   0.873 -0.3871 -0.2223  0.3928
  258TFSI   F0729662   0.602   0.282   0.700 -0.2366 -0.3176  0.1072
  258TFSI   F0829663   0.693   0.423   0.819  0.3927 -0.3416 -0.1777
  258TFSI   F0929664   0.928   0.079   0.253  0.4284 -0.9517 -0.1722
  258TFSI   F0A29665   1.082   0.214   0.342 -0.0085 -0.3040 -0.1500
  258TFSI   F0B29666   1.005   0.059   0.458  0.0120 -0.2232  0.2913
  258TFSI   O0C29667   0.880   0.114   0.700  0.8957  0.0932  0.2603
  258TFSI   O0D29668   0.976   0.309   0.803 -0.7937  0.0408 -0.3231
  258TFSI   O0E29669   0.819   0.375   0.347 -0.2221 -0.4513 -0.0325
  258TFSI   O0F29670   0.713   0.185   0.456 -1.0262 -0.0907 -0.0398
  259TFSI   N0129671   1.246   5.725   2.815  0.4066 -0.0676  0.2487
  259TFSI   S0229672   1.097   5.676   2.786 -0.0384 -0.4493 -0.5299
  259TFSI   S0329673   1.300   5.878   2.826 -0.0271 -0.1732 -0.0394
  259TFSI   C0429674   1.289   5.924   2.649 -0.3479 -0.4632 -0.1112
  259TFSI   C0529675   1.010   5.651   2.954 -0.6665 -0.4692 -0.0443
  259TFSI   F0629676   1.006   5.764   3.033  0.1000 -0.4673  0.0209
  259TFSI   F0729677   1.074   5.564   3.028  0.5553  0.5547 -0.3406
  259TFSI   F0829678   0.880   5.613   2.950 -0.1437 -0.0193  0.8410
  259TFSI   F0929679   1.200   6.020   2.634  0.2938  0.8875  0.6306
  259TFSI   F0A29680   1.405   5.979   2.611 -0.0352 -0.0128  0.2566
  259TFSI   F0B29681   1.264   5.822   2.557 -0.0291 -0.3302 -0.2066
  259TFSI   O0C29682   1.015   5.767   2.711  0.2490  0.0396  0.4119
  259TFSI   O0D29683   1.111   5.528   2.743  0.0319 -0.2194 -0.7265
  259TFSI   O0E29684   1.439   5.872   2.859 -0.0511  0.1157  0.1269
  259TFSI   O0F29685   1.210   5.964   2.908 -0.8240  0.3092 -0.0709
  260TFSI   N0129686   5.882   6.175   4.892 -0.1520 -0.2693  0.2797
  260TFSI   S0229687   5.906   6.062   4.782 -0.4396  0.5560 -0.1218
  260TFSI   S0329688   5.745   6.192   4.965 -0.3752 -0.2877 -0.0323
  260TFSI   C0429689   5.655   6.320   4.851  0.5948  0.9665 -0.5980
  260TFSI   C0529690   5.957   5.921   4.899 -1.4969 -0.0719  0.5524
  260TFSI   F0629691   6.037   5.837   4.831  0.1699 -0.0395 -0.1779
  260TFSI   F0729692   5.864   5.848   4.943  0.3986 -0.0701 -0.2934
  260TFSI   F0829693   6.033   5.965   5.000  0.5843  0.2080  0.0598
  260TFSI   F0929694   5.717   6.443   4.861  0.1843  0.9542  0.0898
  260TFSI   F0A29695   5.660   6.284   4.730 -0.1914  0.2424  0.6103
  260TFSI   F0B29696   5.525   6.336   4.890 -0.0424  0.5022 -0.2948
  260TFSI   O0C29697   5.797   6.004   4.712  0.6306 -0.0792 -0.4257
  260TFSI   O0D29698   6.028   6.094   4.707 -0.5140 -0.5518  0.6043
  260TFSI   O0E29699   5.779   6.281   5.081  0.2590  0.4283 -0.8429
  260TFSI   O0F29700   5.648   6.076   4.969 -0.7500 -0.6049  0.4296
  261TFSI   N0129701   6.252   1.855   3.262 -0.4558 -0.3361 -0.1176
  261TFSI   S0229702   6.164   1.745   3.337  0.0949 -0.1632 -0.0635
  261TFSI   S0329703   6.333   1.831   3.126 -0.1663 -0.2925 -0.0566
  261TFSI   C0429704   6.487   1.749   3.212 -0.8366  0.6060 -0.0594
  261TFSI   C0529705   5.995   1.760   3.251 -0.8720  0.1996 -0.6960
  261TFSI   F0629706   5.912   1.662   3.299 -0.6929  0.0988  0.2076
  261TFSI   F0729707   5.988   1.757   3.118  0.4593  0.3814 -0.0482
  261TFSI   F0829708   5.934   1.885   3.275 -0.1898  0.2185 -0.1901
  261TFSI   F0929709   6.587   1.724   3.122  0.1641 -0.1036  0.2313
  261TFSI   F0A29710   6.534   1.844   3.299  0.6440 -0.5033  0.2005
  261TFSI   F0B29711   6.469   1.631   3.280  0.4425 -0.3593 -0.4474
  261TFSI   O0C29712   6.186   1.600   3.320 -0.1524 -0.3578 -0.1235
  261TFSI   O0D29713   6.129   1.805   3.468  0.5184  0.1978  0.3224
  261TFSI   O0E29714   6.385   1.956   3.092  0.9927 -0.5325  0.2742
  261TFSI   O0F29715   6.302   1.728   3.032  0.3679 -0.9594  0.6499
  262TFSI   N0129716   6.497   5.767   4.555  0.7478  0.1740  0.2246
  262TFSI   S0229717   6.567   5.624   4.532  0.3208  0.0196  0.0035
  262TFSI   S0329718   6.503   5.857   4.688 -0.2036  0.1537 -0.4713
  262TFSI   C0429719   6.363   5.774   4.794 -0.0910  0.7958  0.6409
  262TFSI   C0529720   6.742   5.680   4.466 -0.7447 -0.4010 -0.2705
  262TFSI   F0629721   6.728   5.757   4.354 -0.5152  0.0022  0.1357
  262TFSI   F0729722   6.830   5.585   4.443 -0.2855  0.0353 -0.1795
  262TFSI   F0829723   6.802   5.766   4.547  0.3309 -0.1971  0.2404
  262TFSI   F0929724   6.329   5.849   4.895  0.3290 -0.6759  0.2461
  262TFSI   F0A29725   6.258   5.740   4.715  0.1644  0.6503 -0.2292
  262TFSI   F0B29726   6.404   5.656   4.838 -0.4444 -0.5596 -0.2027
  262TFSI   O0C29727   6.603   5.548   4.651  0.6118  0.1696 -0.0463
  262TFSI   O0D29728   6.521   5.552   4.418  0.2687  0.2597 -0.0888
  262TFSI   O0E29729   6.440   5.978   4.641  0.0179 -0.1530  0.0854
  262TFSI   O0F29730   6.621   5.854   4.769 -0.3320  0.4553 -0.5284
  263TFSI   N0129731   5.950   5.925   2.010  0.3619 -0.1923 -0.2420
  263TFSI   S0229732   6.058   5.859   1.919 -0.1034  0.1015  0.3691
  263TFSI   S0329733   5.990   6.035   2.127  0.8736 -0.2712 -0.1289
  263TFSI   C0429734   6.079   5.943   2.267  1.0133  0.7915 -0.4898
  263TFSI   C0529735   6.073   5.990   1.776  0.5670  0.1102  0.2864
  263TFSI   F0629736   6.175   5.948   1.693 -0.0249  0.1243 -0.2136
  263TFSI   F0729737   6.109   6.113   1.819 -0.0610 -0.4049 -0.5570
  263TFSI   F0829738   5.963   6.010   1.699 -0.7628  0.1405 -0.6775
  263TFSI   F0929739   6.072   6.015   2.380 -0.2981 -0.2782  0.1320
  263TFSI   F0A29740   6.024   5.823   2.304 -0.2216 -0.0344  0.4662
  263TFSI   F0B29741   6.210   5.925   2.239  0.2948  0.2556  0.1531
  263TFSI   O0C29742   6.189   5.841   1.966  0.0978  0.0121 -0.1716
  263TFSI   O0D29743   5.987   5.748   1.858 -0.3220  0.1617 -0.4299
  263TFSI   O0E29744   5.868   6.080   2.192 -0.0213  0.1610 -0.5380
  263TFSI   O0F29745   6.088   6.137   2.116  0.1371 -0.7768  0.5780
  264TFSI   N0129746   5.719   0.512   0.087  0.0719  0.6756 -0.4063
  264TFSI   S0229747   5.689   0.653   0.027 -0.0635 -0.2824 -0.1031
  264TFSI   S0329748   5.624   0.388   0.047 -0.3225 -0.2184  0.2018
  264TFSI   C0429749   5.494   0.380   0.189  0.2021  0.5776 -0.9093
  264TFSI   C0529750   5.798   0.648  -0.129 -1.3161  0.7459 -0.4436
  264TFSI   F0629751   5.927   0.619  -0.097  0.0622 -0.4417  0.2031
  264TFSI   F0729752   5.788   0.767  -0.184 -0.1788  0.3971  0.0082
  264TFSI   F0829753   5.762   0.564  -0.229  0.1608  0.6239 -0.1347
  264TFSI   F0929754   5.431   0.496   0.205 -0.0238  0.6272  0.7269
  264TFSI   F0A29755   5.394   0.294   0.170 -0.1335  0.4106 -0.9034
  264TFSI   F0B29756   5.567   0.353   0.305  0.4580  0.3367  0.4114
  264TFSI   O0C29757   5.557   0.677  -0.023  0.1128  0.5358 -0.1955
  264TFSI   O0D29758   5.740   0.752   0.120 -0.1116  0.5276 -0.3375
  264TFSI   O0E29759   5.690   0.262   0.084 -0.8800 -0.4510  0.1931
  264TFSI   O0F29760   5.545   0.397  -0.070 -0.2435  0.1087  0.2181
  265TFSI   N0129761   4.043   0.157   0.430  0.0090 -0.2791 -0.5331
  265TFSI   S0229762   4.033   0.264   0.319  0.3186 -0.6522 -0.1909
  265TFSI   S0329763   4.127   0.188   0.557 -0.3947 -0.2301 -0.3607
  265TFSI   C0429764   4.298   0.128   0.504  0.4930  1.0207  0.1100
  265TFSI   C0529765   3.916   0.396   0.399  1.1374  0.2538  0.4300
  265TFSI   F0629766   3.886   0.493   0.313 -0.8472 -0.1061 -0.4184
  265TFSI   F0729767   3.970   0.465   0.506 -0.2890 -0.2559  0.1418
  265TFSI   F0829768   3.789   0.353   0.427  0.3016 -0.4375 -0.3424
  265TFSI   F0929769   4.361   0.194   0.406 -0.0477  0.2435  0.1990
  265TFSI   F0A29770   4.373   0.143   0.612 -0.6794 -0.6659  0.6711
  265TFSI   F0B29771   4.302  -0.000   0.472  0.6705 -0.1376  0.0293
  265TFSI   O0C29772   4.143   0.352   0.287 -0.6007 -0.5810  0.8824
  265TFSI   O0D29773   3.966   0.202   0.207  0.1193 -0.1927  0.7424
  265TFSI   O0E29774   4.091   0.097   0.659 -0.2019  0.5834 -0.9404
  265TFSI   O0F29775   4.178   0.320   0.592  0.2432  0.6395 -0.3304
  266TFSI   N0129776   5.323   3.366   3.495  0.0999  0.2812  0.7496
  266TFSI   S0229777   5.349   3.403   3.341 -0.0783 -0.1684 -0.3356
  266TFSI   S0329778   5.251   3.468   3.586  0.0622 -0.2980 -0.6614
  266TFSI   C0429779   5.392   3.572   3.654 -0.5218 -0.6335 -0.3298
  266TFSI   C0529780   5.198   3.318   3.262  0.1646 -0.7940 -0.6288
  266TFSI   F0629781   5.088   3.358   3.325 -0.3050 -0.0310  0.7521
  266TFSI   F0729782   5.207   3.184   3.278  0.4759 -0.6334 -0.3288
  266TFSI   F0829783   5.186   3.327   3.126 -0.0144 -0.0950 -0.1654
  266TFSI   F0929784   5.375   3.612   3.773  0.8691 -0.3168 -0.6126
  266TFSI   F0A29785   5.506   3.507   3.664 -0.2603  0.0017  0.1769
  266TFSI   F0B29786   5.406   3.676   3.567 -0.1405 -0.2204  0.0884
  266TFSI   O0C29787   5.340   3.547   3.294  0.0421 -0.0310 -0.4764
  266TFSI   O0D29788   5.462   3.319   3.296 -0.2506 -0.1369  0.0391
  266TFSI   O0E29789   5.188   3.392   3.696 -0.3161 -0.2483 -0.4272
  266TFSI   O0F29790   5.165   3.561   3.520  0.1248  0.2197 -0.7194
  267TFSI   N0129791   6.435   6.725   5.305 -0.2411  0.0727 -0.4963
  267TFSI   S0229792   6.287   6.683   5.357  0.1838  0.0054  0.1759
  267TFSI   S0329793   6.498   6.866   5.341  0.4616  0.0621 -0.3198
  267TFSI   C0429794   6.416   6.993   5.213 -0.1254 -0.3054  0.1815
  267TFSI   C0529795   6.330   6.606   5.528 -0.1432 -0.3447 -0.3437
  267TFSI   F0629796   6.232   6.539   5.588  0.4311 -0.5438  0.5917
  267TFSI   F0729797   6.377   6.702   5.614  0.1025  0.0968 -0.1892
  267TFSI   F0829798   6.423   6.513   5.507  0.7504 -0.4702 -0.8080
  267TFSI   F0929799   6.286   7.006   5.246 -0.1130  0.7286  0.0547
  267TFSI   F0A29800   6.477   7.107   5.219  0.3924  0.0742 -0.1438
  267TFSI   F0B29801   6.410   6.958   5.081  0.5874  0.3392  0.4774
  267TFSI   O0C29802   6.204   6.792   5.400  0.2164  0.1394 -0.5271
  267TFSI   O0D29803   6.232   6.564   5.298  0.0866  0.2193  0.2593
  267TFSI   O0E29804   6.641   6.861   5.310 -0.1710 -0.1271 -0.2555
  267TFSI   O0F29805   6.450   6.924   5.472 -0.0528 -0.2761 -0.1924
  268TFSI   N0129806   5.828   4.388   0.153  0.2812  0.0683 -0.1117
  268TFSI   S0229807   5.681   4.397   0.090  0.2413  0.6795 -0.1318
  268TFSI   S0329808   5.966   4.352   0.081  0.9602 -0.0274 -0.0214
  268TFSI   C0429809   5.996   4.179   0.150 -0.2726 -0.1100 -0.4638
  268TFSI   C0529810   5.701   4.534  -0.049 -0.1175 -0.7227 -0.3672
  268TFSI   F0629811   5.582   4.572  -0.100  0.0610  0.0468  0.2278
  268TFSI   F0729812   5.769   4.520  -0.166  0.3975  0.1693  0.1693
  268TFSI   F0829813   5.750   4.647   0.012 -0.5906 -0.0998  0.3401
  268TFSI   F0929814   6.013   4.177   0.284 -0.1594  0.3449 -0.3273
  268TFSI   F0A29815   5.882   4.108   0.121 -0.3583  0.4767 -0.2185
  268TFSI   F0B29816   6.093   4.109   0.090 -0.4595  0.1784  0.1053
  268TFSI   O0C29817   5.630   4.288   0.014 -0.0127  0.0395 -0.0273
  268TFSI   O0D29818   5.589   4.444   0.192 -0.0089 -0.3336  0.3321
  268TFSI   O0E29819   6.061   4.439   0.142  0.3638 -0.1620 -0.0492
  268TFSI   O0F29820   5.965   4.327  -0.068 -0.0220  0.2277 -0.0535
  269TFSI   N0129821   1.939   6.687   3.685 -0.3123  0.6007  0.2107
  269TFSI   S0229822   1.990   6.619   3.548  0.1262  0.2777 -0.1077
  269TFSI   S0329823   1.865   6.830   3.703 -0.1629  0.4553  0.4213
  269TFSI   C0429824   1.992   6.960   3.656 -0.1037  0.0567  1.0771
  269TFSI   C0529825   1.833   6.533   3.487 -0.2023 -0.3607 -0.6957
  269TFSI   F0629826   1.770   6.468   3.586  0.2308 -0.0012 -0.0369
  269TFSI   F0729827   1.855   6.439   3.389 -0.2655  0.3284 -0.1042
  269TFSI   F0829828   1.738   6.625   3.458 -0.6921  0.1631 -0.7756
  269TFSI   F0929829   2.020   6.970   3.523 -0.3999 -0.1627 -0.1875
  269TFSI   F0A29830   1.947   7.088   3.679 -0.1250 -0.4886  0.1206
  269TFSI   F0B29831   2.105   6.938   3.722  0.1175 -0.7416 -0.1573
  269TFSI   O0C29832   2.009   6.704   3.433  0.0007  0.2538  0.5485
  269TFSI   O0D29833   2.077   6.504   3.567  0.0807  0.1499 -0.9624
  269TFSI   O0E29834   1.831   6.854   3.842 -0.0264  0.0623  0.5678
  269TFSI   O0F29835   1.761   6.873   3.610  0.5369  0.4398 -0.1291
  270TFSI   N0129836   6.223   6.279   6.754  0.7871  0.3275 -0.2818
  270TFSI   S0229837   6.170   6.420   6.687 -0.0827  0.4329 -0.2873
  270TFSI   S0329838   6.356   6.210   6.709  0.0646 -0.2043  0.1870
  270TFSI   C0429839   6.302   6.139   6.535 -0.7438 -0.2975 -0.3292
  270TFSI   C0529840   6.206   6.517   6.852  0.3020 -0.5217  0.4195
  270TFSI   F0629841   6.162   6.648   6.836 -0.7728  0.1657  0.1438
  270TFSI   F0729842   6.340   6.525   6.875 -0.2895  0.5986  0.3164
  270TFSI   F0829843   6.145   6.469   6.963  0.4372  0.9453  0.3480
  270TFSI   F0929844   6.395   6.075   6.464 -0.2234 -0.6007  0.2414
  270TFSI   F0A29845   6.210   6.049   6.568  0.1596  0.1627  0.3460
  270TFSI   F0B29846   6.244   6.236   6.462 -0.0436  0.3537 -0.1304
  270TFSI   O0C29847   6.245   6.499   6.592  0.2621  0.3397  0.6298
  270TFSI   O0D29848   6.024   6.419   6.668 -0.4102 -0.2155 -0.0117
  270TFSI   O0E29849   6.376   6.094   6.788  0.3996  0.3906 -0.2665
  270TFSI   O0F29850   6.467   6.296   6.670  0.5718  0.6641  0.2227
  271TFSI   N0129851   3.451   5.009   5.318  0.1943 -0.2706  0.1937
  271TFSI   S0229852   3.371   5.133   5.269 -0.1461 -0.4199 -0.3387
  271TFSI   S0329853   3.587   4.954   5.260  0.1506  0.1703  0.1202
  271TFSI   C0429854   3.515   4.853   5.112 -0.5080 -0.1886 -0.0696
  271TFSI   C0529855   3.460   5.279   5.353 -0.4354 -1.1859  0.1832
  271TFSI   F0629856   3.561   5.312   5.272  0.2761  0.3281  0.3033
  271TFSI   F0729857   3.510   5.257   5.475  0.0926  0.1453 -0.0541
  271TFSI   F0829858   3.376   5.389   5.364  0.0457  0.0186  0.0737
  271TFSI   F0929859   3.435   4.746   5.153 -0.3070 -0.3467  0.0660
  271TFSI   F0A29860   3.437   4.928   5.021 -0.2124 -0.3382 -0.0924
  271TFSI   F0B29861   3.609   4.788   5.047 -0.4280 -0.0517  0.4503
  271TFSI   O0C29862   3.386   5.169   5.127 -0.1316  0.1111 -0.2012
  271TFSI   O0D29863   3.246   5.130   5.339 -0.0641 -0.8685 -0.3267
  271TFSI   O0E29864   3.638   4.853   5.349  0.2857 -0.1891 -0.5947
  271TFSI   O0F29865   3.679   5.048   5.194 -0.1211 -0.2453 -0.9791
  272TFSI   N0129866   0.041   4.466   4.249  0.5599  0.0555 -0.6721
  272TFSI   S0229867  -0.023   4.442   4.392 -0.0233  0.4649  0.0166
  272TFSI   S0329868   0.016   4.598   4.168 -0.2016  0.1197  0.0262
  272TFSI   C0429869  -0.084   4.513   4.017 -0.3090  0.1026  0.6390
  272TFSI   C0529870   0.096   4.535   4.503  0.3246 -0.6784 -0.0755
  272TFSI   F0629871   0.034   4.536   4.624  0.1725  0.6617  0.7089
  272TFSI   F0729872   0.122   4.662   4.478 -0.0653  0.3146 -0.4055
  272TFSI   F0829873   0.211   4.471   4.514  0.0558  0.2241 -0.2149
  272TFSI   F0929874  -0.095   4.595   3.912 -0.0188  0.0172  0.2280
  272TFSI   F0A29875  -0.025   4.405   3.960  0.5910 -0.0832 -0.3592
  272TFSI   F0B29876  -0.213   4.486   4.043 -0.1290  0.6844 -0.2003
  272TFSI   O0C29877  -0.155   4.492   4.426 -0.0346 -0.6331 -0.0301
  272TFSI   O0D29878   0.006   4.302   4.428  0.5124  0.1097 -0.1819
  272TFSI   O0E29879   0.139   4.619   4.099  0.2989 -0.0558 -0.0801
  272TFSI   O0F29880  -0.066   4.713   4.215 -0.4612 -0.2113 -0.2743
  273TFSI   N0129881   5.984   4.178   3.975  0.1526 -0.4493  0.2310
  273TFSI   S0229882   5.933   4.029   3.963  0.1073 -0.1478  0.1031
  273TFSI   S0329883   6.134   4.227   3.984 -0.1578 -0.0042 -0.1564
  273TFSI   C0429884   6.199   4.192   4.159  0.2073 -0.0274  0.9159
  273TFSI   C0529885   5.930   4.004   3.769 -0.5775 -0.0817 -0.3892
  273TFSI   F0629886   5.854   4.081   3.691 -0.1626 -0.2667 -0.5692
  273TFSI   F0729887   5.885   3.883   3.738  0.0831 -0.2158 -0.1024
  273TFSI   F0829888   6.056   4.015   3.723 -0.3892 -0.2170 -0.7045
  273TFSI   F0929889   6.124   4.246   4.257 -0.3990  0.6249  0.3480
  273TFSI   F0A29890   6.209   4.058   4.180  0.0380 -0.4318  0.4308
  273TFSI   F0B29891   6.325   4.236   4.167 -0.3632  0.6760 -0.1511
  273TFSI   O0C29892   6.020   3.925   4.011 -0.1261 -0.7296  0.2427
  273TFSI   O0D29893   5.792   4.026   3.993  0.2714 -0.1351  0.4293
  273TFSI   O0E29894   6.110   4.372   3.983 -0.3780 -0.0206 -0.5481
  273TFSI   O0F29895   6.227   4.175   3.894 -0.3460  0.1486 -0.3942
  274TFSI   N0129896   5.901   0.209   0.848 -0.1450 -0.1872 -0.2466
  274TFSI   S0229897   5.790   0.218   0.738  0.4189 -0.6722 -0.1778
  274TFSI   S0329898   6.052   0.188   0.809 -0.1739  0.1870  0.0175
  274TFSI   C0429899   6.062  -0.003   0.795 -0.8350  0.0809  0.2746
  274TFSI   C0529900   5.786   0.406   0.689 -0.0690  0.1489 -0.2945
  274TFSI   F0629901   5.879   0.439   0.598  0.0844  0.3437 -0.2269
  274TFSI   F0729902   5.807   0.494   0.786 -0.0524 -0.3859  0.2236
  274TFSI   F0829903   5.659   0.434   0.643 -0.0218  0.2361  0.6575
  274TFSI   F0929904   6.187  -0.042   0.759 -0.1897  0.6978  0.0217
  274TFSI   F0A29905   6.042  -0.059   0.920 -0.6187 -0.5491  0.3710
  274TFSI   F0B29906   5.982  -0.056   0.707 -0.0135  0.3752 -0.6290
  274TFSI   O0C29907   5.821   0.157   0.612  0.3489 -0.1588  0.0394
  274TFSI   O0D29908   5.654   0.202   0.791 -0.4050  0.1569 -0.6651
  274TFSI   O0E29909   6.140   0.222   0.916 -0.4102 -0.2996  0.4484
  274TFSI   O0F29910   6.105   0.229   0.677  0.5025 -0.1272 -0.1810
  275TFSI   N0129911   0.490   5.738   2.468  0.3825  0.3649 -0.3552
  275TFSI   S0229912   0.443   5.853   2.377 -0.4780 -0.1186 -0.6853
  275TFSI   S0329913   0.492   5.759   2.629  0.0647  0.0106 -0.4935
  275TFSI   C0429914   0.654   5.851   2.661  0.9182  0.2553 -0.1498
  275TFSI   C0529915   0.250   5.829   2.365 -0.5450 -0.2693 -0.5388
  275TFSI   F0629916   0.179   5.904   2.451 -0.9366 -0.0691 -0.3463
  275TFSI   F0729917   0.207   5.704   2.393 -0.5493 -0.2665  0.2866
  275TFSI   F0829918   0.206   5.853   2.246 -0.2466  0.6041  0.0290
  275TFSI   F0929919   0.741   5.826   2.561 -0.0969 -0.1291  0.3619
  275TFSI   F0A29920   0.642   5.987   2.672 -0.0865  0.4306 -0.6062
  275TFSI   F0B29921   0.718   5.821   2.777  0.4894 -0.0360 -0.1876
  275TFSI   O0C29922   0.463   5.988   2.427 -0.2263  0.3342 -0.2204
  275TFSI   O0D29923   0.494   5.820   2.242  0.1405 -0.2811 -0.3454
  275TFSI   O0E29924   0.504   5.628   2.689  0.5270 -0.1714  0.2787
  275TFSI   O0F29925   0.395   5.846   2.688  0.5776  0.3257 -0.3352
  276TFSI   N0129926   3.068   3.524   1.620 -0.0721 -0.6329 -0.0078
  276TFSI   S0229927   3.022   3.476   1.761  0.7105  0.2766  0.2046
  276TFSI   S0329928   3.015   3.655   1.546  0.3207  0.2334 -0.1729
  276TFSI   C0429929   2.841   3.612   1.483  0.2155 -0.4340  0.3390
  276TFSI   C0529930   3.183   3.474   1.853  0.5245 -1.4225  0.2906
  276TFSI   F0629931   3.274   3.432   1.767 -0.3550 -0.0675  0.1697
  276TFSI   F0729932   3.184   3.400   1.963 -0.5964  0.1787 -0.2258
  276TFSI   F0829933   3.219   3.601   1.886  0.1479 -0.4809  1.0828
  276TFSI   F0929934   2.754   3.593   1.587  0.0092  0.1051 -0.1350
  276TFSI   F0A29935   2.794   3.714   1.416  0.1839  0.3339  0.2095
  276TFSI   F0B29936   2.845   3.496   1.410  0.0406 -0.2887 -0.1136
  276TFSI   O0C29937   2.908   3.553   1.826 -0.6082 -0.4970 -0.4338
  276TFSI   O0D29938   3.003   3.331   1.758  0.2975  0.3437  0.6754
  276TFSI   O0E29939   3.095   3.672   1.423  0.1424  0.3616  0.5206
  276TFSI   O0F29940   2.979   3.771   1.617  0.1627 -0.2184 -0.1083
  277TFSI   N0129941   5.165   4.829   2.339  0.4458 -0.0298 -0.6975
  277TFSI   S0229942   5.305   4.794   2.278  0.2589  0.3020 -0.1504
  277TFSI   S0329943   5.084   4.963   2.289  0.3689  0.0469  0.0333
  277TFSI   C0429944   5.131   5.058   2.450  0.4406  0.6664 -0.7607
  277TFSI   C0529945   5.272   4.744   2.093  0.5610  0.5518 -0.3296
  277TFSI   F0629946   5.236   4.850   2.020 -0.1769  0.3586 -0.0239
  277TFSI   F0729947   5.180   4.654   2.092  0.1587  0.6009 -0.2513
  277TFSI   F0829948   5.376   4.683   2.031  0.2756  0.3873 -0.4415
  277TFSI   F0929949   5.257   5.086   2.453 -0.5381 -0.0375 -0.4781
  277TFSI   F0A29950   5.074   5.179   2.478  0.6106  0.2442 -0.4047
  277TFSI   F0B29951   5.104   4.969   2.548  0.2421  0.1845 -0.2642
  277TFSI   O0C29952   5.404   4.893   2.258 -0.8637 -0.5167  0.2386
  277TFSI   O0D29953   5.344   4.670   2.347  0.3052 -0.2678  0.3128
  277TFSI   O0E29954   4.937   4.948   2.296 -0.3940 -0.7233  0.2692
  277TFSI   O0F29955   5.152   5.043   2.191  0.5656  0.3317 -0.2906
  278TFSI   N0129956   0.182   2.751   6.286  0.5051 -0.7068 -0.9294
  278TFSI   S0229957   0.325   2.815   6.307 -0.2337  0.0848 -0.0741
  278TFSI   S0329958   0.113   2.731   6.144 -0.4301  0.6334 -0.0020
  278TFSI   C0429959   0.170   2.547   6.114 -0.9476 -0.7497  1.1221
  278TFSI   C0529960   0.314   3.005   6.281  0.1023  0.5101 -0.3362
  278TFSI   F0629961   0.224   3.057   6.362  0.0150  0.3194  0.0162
  278TFSI   F0729962   0.269   3.041   6.157 -0.3570  0.3148  0.1271
  278TFSI   F0829963   0.430   3.071   6.285  0.4223 -0.3491 -0.3067
  278TFSI   F0929964   0.150   2.461   6.214 -0.1845 -0.0300 -0.2772
  278TFSI   F0A29965   0.108   2.501   6.002  0.1009 -0.2668  0.4290
  278TFSI   F0B29966   0.301   2.558   6.085  0.4188  0.1356 -0.3167
  278TFSI   O0C29967   0.378   2.805   6.440  0.0652  0.0818 -0.0405
  278TFSI   O0D29968   0.411   2.779   6.195  0.0105  0.5142  0.1522
  278TFSI   O0E29969   0.170   2.810   6.037 -0.2667 -0.1758  0.2236
  278TFSI   O0F29970  -0.030   2.713   6.155 -0.1617  0.5462 -0.4548
  279TFSI   N0129971   4.628   0.330   1.048  0.4726 -0.1884  0.4410
  279TFSI   S0229972   4.516   0.311   0.937 -0.1391 -0.1977  0.0118
  279TFSI   S0329973   4.781   0.284   1.051  0.0170  0.0662  0.2930
  279TFSI   C0429974   4.788   0.103   1.097  0.4031  0.5293  0.3888
  279TFSI   C0529975   4.567   0.440   0.802 -0.1477 -1.0549  0.3788
  279TFSI   F0629976   4.690   0.415   0.754  1.0114 -0.2740  0.0932
  279TFSI   F0729977   4.574   0.570   0.845  0.3260  0.0070 -1.0051
  279TFSI   F0829978   4.482   0.434   0.694 -0.4013  0.5871  0.1091
  279TFSI   F0929979   4.730   0.026   1.001  0.1316 -0.4925 -0.8506
  279TFSI   F0A29980   4.918   0.066   1.124  0.3364  0.1556  0.3620
  279TFSI   F0B29981   4.718   0.078   1.205  0.2083 -0.0325 -0.5057
  279TFSI   O0C29982   4.512   0.182   0.868  0.0251  0.4362  0.4260
  279TFSI   O0D29983   4.398   0.369   0.995  0.3898 -0.0921  0.6097
  279TFSI   O0E29984   4.839   0.345   1.166 -0.4705 -0.0364  0.3117
  279TFSI   O0F29985   4.862   0.280   0.931  0.2962 -0.4676 -0.0783
  280TFSI   N0129986   6.443   0.480   5.959  0.0772 -0.3222 -0.3745
  280TFSI   S0229987   6.594   0.484   6.002  0.5369 -0.4238  0.0794
  280TFSI   S0329988   6.338   0.388   6.034 -0.1020  0.1255  0.2680
  280TFSI   C0429989   6.315   0.254   5.904  0.0895  0.1837 -0.0678
  280TFSI   C0529990   6.593   0.648   6.104 -0.3929 -0.1571  0.0840
  280TFSI   F0629991   6.566   0.750   6.025 -0.2304  0.1361  0.1332
  280TFSI   F0729992   6.714   0.666   6.157 -0.1548 -0.2464  0.2216
  280TFSI   F0829993   6.497   0.652   6.204 -0.6933  0.2284 -0.2256
  280TFSI   F0929994   6.245   0.158   5.957 -0.2288 -0.1767  0.3080
  280TFSI   F0A29995   6.239   0.297   5.806 -0.4350 -0.1264 -0.1206
  280TFSI   F0B29996   6.434   0.201   5.862  0.4072 -0.4186 -0.0132
  280TFSI   O0C29997   6.650   0.390   6.094 -0.1508 -0.2262  0.1085
  280TFSI   O0D29998   6.677   0.520   5.881  0.2510 -0.9605 -0.2280
  280TFSI   O0E29999   6.209   0.457   6.020  0.5951 -0.2073 -0.2828
  280TFSI   O0F30000   6.366   0.319   6.157  0.4350  0.4155 -0.4523
   6.79779   6.79779   6.79779
